+ 0.11016 2 3 tcp 40 ------- 1 0.0 4.0 0 0
- 0.11016 2 3 tcp 40 ------- 1 0.0 4.0 0 0
r 0.311227 2 3 tcp 40 ------- 1 0.0 4.0 0 0
+ 0.555141 2 3 tcp 592 ------- 1 0.0 4.0 1 2
- 0.555141 2 3 tcp 592 ------- 1 0.0 4.0 1 2
+ 0.557509 2 3 tcp 592 ------- 1 0.0 4.0 2 3
- 0.570928 2 3 tcp 592 ------- 1 0.0 4.0 2 3
r 0.770928 2 3 tcp 592 ------- 1 0.0 4.0 1 2
r 0.786715 2 3 tcp 592 ------- 1 0.0 4.0 2 3
+ 1.017051 2 3 tcp 592 ------- 1 0.0 4.0 3 6
- 1.017051 2 3 tcp 592 ------- 1 0.0 4.0 3 6
+ 1.019419 2 3 tcp 592 ------- 1 0.0 4.0 4 7
- 1.032837 2 3 tcp 592 ------- 1 0.0 4.0 4 7
+ 1.032837 2 3 tcp 592 ------- 1 0.0 4.0 5 8
+ 1.035205 2 3 tcp 592 ------- 1 0.0 4.0 6 9
- 1.048624 2 3 tcp 592 ------- 1 0.0 4.0 5 8
- 1.064411 2 3 tcp 592 ------- 1 0.0 4.0 6 9
r 1.232837 2 3 tcp 592 ------- 1 0.0 4.0 3 6
r 1.248624 2 3 tcp 592 ------- 1 0.0 4.0 4 7
r 1.264411 2 3 tcp 592 ------- 1 0.0 4.0 5 8
r 1.280197 2 3 tcp 592 ------- 1 0.0 4.0 6 9
+ 1.47896 2 3 tcp 592 ------- 1 0.0 4.0 7 14
- 1.47896 2 3 tcp 592 ------- 1 0.0 4.0 7 14
+ 1.481328 2 3 tcp 592 ------- 1 0.0 4.0 8 15
- 1.494747 2 3 tcp 592 ------- 1 0.0 4.0 8 15
+ 1.494747 2 3 tcp 592 ------- 1 0.0 4.0 9 16
+ 1.497115 2 3 tcp 592 ------- 1 0.0 4.0 10 17
- 1.510533 2 3 tcp 592 ------- 1 0.0 4.0 9 16
+ 1.510533 2 3 tcp 592 ------- 1 0.0 4.0 11 18
+ 1.512901 2 3 tcp 592 ------- 1 0.0 4.0 12 19
- 1.52632 2 3 tcp 592 ------- 1 0.0 4.0 10 17
+ 1.52632 2 3 tcp 592 ------- 1 0.0 4.0 13 20
+ 1.528688 2 3 tcp 592 ------- 1 0.0 4.0 14 21
- 1.542107 2 3 tcp 592 ------- 1 0.0 4.0 11 18
- 1.557893 2 3 tcp 592 ------- 1 0.0 4.0 12 19
- 1.57368 2 3 tcp 592 ------- 1 0.0 4.0 13 20
- 1.589467 2 3 tcp 592 ------- 1 0.0 4.0 14 21
r 1.694747 2 3 tcp 592 ------- 1 0.0 4.0 7 14
r 1.710533 2 3 tcp 592 ------- 1 0.0 4.0 8 15
r 1.72632 2 3 tcp 592 ------- 1 0.0 4.0 9 16
r 1.742107 2 3 tcp 592 ------- 1 0.0 4.0 10 17
r 1.757893 2 3 tcp 592 ------- 1 0.0 4.0 11 18
r 1.77368 2 3 tcp 592 ------- 1 0.0 4.0 12 19
r 1.789467 2 3 tcp 592 ------- 1 0.0 4.0 13 20
r 1.805253 2 3 tcp 592 ------- 1 0.0 4.0 14 21
+ 1.940869 2 3 tcp 592 ------- 1 0.0 4.0 15 30
- 1.940869 2 3 tcp 592 ------- 1 0.0 4.0 15 30
+ 1.943237 2 3 tcp 592 ------- 1 0.0 4.0 16 31
- 1.956656 2 3 tcp 592 ------- 1 0.0 4.0 16 31
+ 1.956656 2 3 tcp 592 ------- 1 0.0 4.0 17 32
+ 1.959024 2 3 tcp 592 ------- 1 0.0 4.0 18 33
- 1.972443 2 3 tcp 592 ------- 1 0.0 4.0 17 32
+ 1.972443 2 3 tcp 592 ------- 1 0.0 4.0 19 34
+ 1.974811 2 3 tcp 592 ------- 1 0.0 4.0 20 35
- 1.988229 2 3 tcp 592 ------- 1 0.0 4.0 18 33
+ 1.988229 2 3 tcp 592 ------- 1 0.0 4.0 21 36
+ 1.990597 2 3 tcp 592 ------- 1 0.0 4.0 22 37
- 2.004016 2 3 tcp 592 ------- 1 0.0 4.0 19 34
+ 2.004016 2 3 tcp 592 ------- 1 0.0 4.0 23 38
+ 2.006384 2 3 tcp 592 ------- 1 0.0 4.0 24 39
- 2.019803 2 3 tcp 592 ------- 1 0.0 4.0 20 35
+ 2.019803 2 3 tcp 592 ------- 1 0.0 4.0 25 40
+ 2.022171 2 3 tcp 592 ------- 1 0.0 4.0 26 41
- 2.035589 2 3 tcp 592 ------- 1 0.0 4.0 21 36
+ 2.035589 2 3 tcp 592 ------- 1 0.0 4.0 27 42
+ 2.037957 2 3 tcp 592 ------- 1 0.0 4.0 28 43
- 2.051376 2 3 tcp 592 ------- 1 0.0 4.0 22 37
+ 2.051376 2 3 tcp 592 ------- 1 0.0 4.0 29 44
+ 2.053744 2 3 tcp 592 ------- 1 0.0 4.0 30 45
- 2.067163 2 3 tcp 592 ------- 1 0.0 4.0 23 38
- 2.082949 2 3 tcp 592 ------- 1 0.0 4.0 24 39
- 2.098736 2 3 tcp 592 ------- 1 0.0 4.0 25 40
- 2.114523 2 3 tcp 592 ------- 1 0.0 4.0 26 41
- 2.130309 2 3 tcp 592 ------- 1 0.0 4.0 27 42
- 2.146096 2 3 tcp 592 ------- 1 0.0 4.0 28 43
r 2.156656 2 3 tcp 592 ------- 1 0.0 4.0 15 30
- 2.161883 2 3 tcp 592 ------- 1 0.0 4.0 29 44
r 2.172443 2 3 tcp 592 ------- 1 0.0 4.0 16 31
- 2.177669 2 3 tcp 592 ------- 1 0.0 4.0 30 45
r 2.188229 2 3 tcp 592 ------- 1 0.0 4.0 17 32
r 2.204016 2 3 tcp 592 ------- 1 0.0 4.0 18 33
r 2.219803 2 3 tcp 592 ------- 1 0.0 4.0 19 34
r 2.235589 2 3 tcp 592 ------- 1 0.0 4.0 20 35
r 2.251376 2 3 tcp 592 ------- 1 0.0 4.0 21 36
r 2.267163 2 3 tcp 592 ------- 1 0.0 4.0 22 37
r 2.282949 2 3 tcp 592 ------- 1 0.0 4.0 23 38
r 2.298736 2 3 tcp 592 ------- 1 0.0 4.0 24 39
r 2.314523 2 3 tcp 592 ------- 1 0.0 4.0 25 40
r 2.330309 2 3 tcp 592 ------- 1 0.0 4.0 26 41
r 2.346096 2 3 tcp 592 ------- 1 0.0 4.0 27 42
r 2.361883 2 3 tcp 592 ------- 1 0.0 4.0 28 43
r 2.377669 2 3 tcp 592 ------- 1 0.0 4.0 29 44
r 2.393456 2 3 tcp 592 ------- 1 0.0 4.0 30 45
+ 2.402779 2 3 tcp 592 ------- 1 0.0 4.0 31 61
- 2.402779 2 3 tcp 592 ------- 1 0.0 4.0 31 61
+ 2.405147 2 3 tcp 592 ------- 1 0.0 4.0 32 62
- 2.418565 2 3 tcp 592 ------- 1 0.0 4.0 32 62
+ 2.418565 2 3 tcp 592 ------- 1 0.0 4.0 33 64
+ 2.420933 2 3 tcp 592 ------- 1 0.0 4.0 34 65
- 2.434352 2 3 tcp 592 ------- 1 0.0 4.0 33 64
+ 2.434352 2 3 tcp 592 ------- 1 0.0 4.0 35 66
+ 2.43672 2 3 tcp 592 ------- 1 0.0 4.0 36 67
- 2.450139 2 3 tcp 592 ------- 1 0.0 4.0 34 65
+ 2.450139 2 3 tcp 592 ------- 1 0.0 4.0 37 68
+ 2.452507 2 3 tcp 592 ------- 1 0.0 4.0 38 69
- 2.465925 2 3 tcp 592 ------- 1 0.0 4.0 35 66
+ 2.465925 2 3 tcp 592 ------- 1 0.0 4.0 39 70
+ 2.468293 2 3 tcp 592 ------- 1 0.0 4.0 40 71
- 2.481712 2 3 tcp 592 ------- 1 0.0 4.0 36 67
+ 2.481712 2 3 tcp 592 ------- 1 0.0 4.0 41 72
+ 2.48408 2 3 tcp 592 ------- 1 0.0 4.0 42 73
- 2.497499 2 3 tcp 592 ------- 1 0.0 4.0 37 68
+ 2.497499 2 3 tcp 592 ------- 1 0.0 4.0 43 74
+ 2.499867 2 3 tcp 592 ------- 1 0.0 4.0 44 75
- 2.513285 2 3 tcp 592 ------- 1 0.0 4.0 38 69
+ 2.513285 2 3 tcp 592 ------- 1 0.0 4.0 45 76
+ 2.515653 2 3 tcp 592 ------- 1 0.0 4.0 46 77
- 2.529072 2 3 tcp 592 ------- 1 0.0 4.0 39 70
+ 2.529072 2 3 tcp 592 ------- 1 0.0 4.0 47 78
+ 2.53144 2 3 tcp 592 ------- 1 0.0 4.0 48 79
- 2.544859 2 3 tcp 592 ------- 1 0.0 4.0 40 71
+ 2.544859 2 3 tcp 592 ------- 1 0.0 4.0 49 80
+ 2.547227 2 3 tcp 592 ------- 1 0.0 4.0 50 81
d 2.547227 2 3 tcp 592 ------- 1 0.0 4.0 50 81
- 2.560645 2 3 tcp 592 ------- 1 0.0 4.0 41 72
+ 2.560645 2 3 tcp 592 ------- 1 0.0 4.0 51 82
+ 2.563013 2 3 tcp 592 ------- 1 0.0 4.0 52 83
d 2.563013 2 3 tcp 592 ------- 1 0.0 4.0 52 83
- 2.576432 2 3 tcp 592 ------- 1 0.0 4.0 42 73
+ 2.576432 2 3 tcp 592 ------- 1 0.0 4.0 53 84
+ 2.5788 2 3 tcp 592 ------- 1 0.0 4.0 54 85
d 2.5788 2 3 tcp 592 ------- 1 0.0 4.0 54 85
- 2.592219 2 3 tcp 592 ------- 1 0.0 4.0 43 74
+ 2.592219 2 3 tcp 592 ------- 1 0.0 4.0 55 86
+ 2.594587 2 3 tcp 592 ------- 1 0.0 4.0 56 87
d 2.594587 2 3 tcp 592 ------- 1 0.0 4.0 56 87
- 2.608005 2 3 tcp 592 ------- 1 0.0 4.0 44 75
+ 2.608005 2 3 tcp 592 ------- 1 0.0 4.0 57 88
+ 2.610373 2 3 tcp 592 ------- 1 0.0 4.0 58 89
d 2.610373 2 3 tcp 592 ------- 1 0.0 4.0 58 89
r 2.618565 2 3 tcp 592 ------- 1 0.0 4.0 31 61
- 2.623792 2 3 tcp 592 ------- 1 0.0 4.0 45 76
+ 2.623792 2 3 tcp 592 ------- 1 0.0 4.0 59 90
+ 2.62616 2 3 tcp 592 ------- 1 0.0 4.0 60 91
d 2.62616 2 3 tcp 592 ------- 1 0.0 4.0 60 91
r 2.634352 2 3 tcp 592 ------- 1 0.0 4.0 32 62
- 2.639579 2 3 tcp 592 ------- 1 0.0 4.0 46 77
+ 2.639579 2 3 tcp 592 ------- 1 0.0 4.0 61 92
+ 2.641947 2 3 tcp 592 ------- 1 0.0 4.0 62 93
d 2.641947 2 3 tcp 592 ------- 1 0.0 4.0 62 93
r 2.650139 2 3 tcp 592 ------- 1 0.0 4.0 33 64
- 2.655365 2 3 tcp 592 ------- 1 0.0 4.0 47 78
r 2.665925 2 3 tcp 592 ------- 1 0.0 4.0 34 65
- 2.671152 2 3 tcp 592 ------- 1 0.0 4.0 48 79
r 2.681712 2 3 tcp 592 ------- 1 0.0 4.0 35 66
- 2.686939 2 3 tcp 592 ------- 1 0.0 4.0 49 80
r 2.697499 2 3 tcp 592 ------- 1 0.0 4.0 36 67
- 2.702725 2 3 tcp 592 ------- 1 0.0 4.0 51 82
r 2.713285 2 3 tcp 592 ------- 1 0.0 4.0 37 68
- 2.718512 2 3 tcp 592 ------- 1 0.0 4.0 53 84
r 2.729072 2 3 tcp 592 ------- 1 0.0 4.0 38 69
- 2.734299 2 3 tcp 592 ------- 1 0.0 4.0 55 86
r 2.744859 2 3 tcp 592 ------- 1 0.0 4.0 39 70
- 2.750085 2 3 tcp 592 ------- 1 0.0 4.0 57 88
r 2.760645 2 3 tcp 592 ------- 1 0.0 4.0 40 71
- 2.765872 2 3 tcp 592 ------- 1 0.0 4.0 59 90
r 2.776432 2 3 tcp 592 ------- 1 0.0 4.0 41 72
- 2.781659 2 3 tcp 592 ------- 1 0.0 4.0 61 92
r 2.792219 2 3 tcp 592 ------- 1 0.0 4.0 42 73
r 2.808005 2 3 tcp 592 ------- 1 0.0 4.0 43 74
r 2.823792 2 3 tcp 592 ------- 1 0.0 4.0 44 75
r 2.839579 2 3 tcp 592 ------- 1 0.0 4.0 45 76
r 2.855365 2 3 tcp 592 ------- 1 0.0 4.0 46 77
+ 2.864688 2 3 tcp 592 ------- 1 0.0 4.0 63 109
- 2.864688 2 3 tcp 592 ------- 1 0.0 4.0 63 109
+ 2.867056 2 3 tcp 592 ------- 1 0.0 4.0 64 110
r 2.871152 2 3 tcp 592 ------- 1 0.0 4.0 47 78
- 2.880475 2 3 tcp 592 ------- 1 0.0 4.0 64 110
+ 2.880475 2 3 tcp 592 ------- 1 0.0 4.0 65 112
+ 2.882843 2 3 tcp 592 ------- 1 0.0 4.0 66 113
r 2.886939 2 3 tcp 592 ------- 1 0.0 4.0 48 79
- 2.896261 2 3 tcp 592 ------- 1 0.0 4.0 65 112
+ 2.896261 2 3 tcp 592 ------- 1 0.0 4.0 67 115
+ 2.898629 2 3 tcp 592 ------- 1 0.0 4.0 68 116
r 2.902725 2 3 tcp 592 ------- 1 0.0 4.0 49 80
- 2.912048 2 3 tcp 592 ------- 1 0.0 4.0 66 113
+ 2.912048 2 3 tcp 592 ------- 1 0.0 4.0 69 118
+ 2.914416 2 3 tcp 592 ------- 1 0.0 4.0 70 119
r 2.918512 2 3 tcp 592 ------- 1 0.0 4.0 51 82
- 2.927835 2 3 tcp 592 ------- 1 0.0 4.0 67 115
+ 2.927835 2 3 tcp 592 ------- 1 0.0 4.0 71 121
+ 2.930203 2 3 tcp 592 ------- 1 0.0 4.0 72 122
r 2.934299 2 3 tcp 592 ------- 1 0.0 4.0 53 84
- 2.943621 2 3 tcp 592 ------- 1 0.0 4.0 68 116
+ 2.943621 2 3 tcp 592 ------- 1 0.0 4.0 73 124
+ 2.945989 2 3 tcp 592 ------- 1 0.0 4.0 74 125
r 2.950085 2 3 tcp 592 ------- 1 0.0 4.0 55 86
- 2.959408 2 3 tcp 592 ------- 1 0.0 4.0 69 118
+ 2.959408 2 3 tcp 592 ------- 1 0.0 4.0 75 127
+ 2.961776 2 3 tcp 592 ------- 1 0.0 4.0 76 128
r 2.965872 2 3 tcp 592 ------- 1 0.0 4.0 57 88
- 2.975195 2 3 tcp 592 ------- 1 0.0 4.0 70 119
+ 2.975195 2 3 tcp 592 ------- 1 0.0 4.0 77 130
+ 2.977563 2 3 tcp 592 ------- 1 0.0 4.0 78 131
r 2.981659 2 3 tcp 592 ------- 1 0.0 4.0 59 90
- 2.990981 2 3 tcp 592 ------- 1 0.0 4.0 71 121
+ 2.990981 2 3 tcp 592 ------- 1 0.0 4.0 79 133
+ 2.993349 2 3 tcp 592 ------- 1 0.0 4.0 80 134
r 2.997445 2 3 tcp 592 ------- 1 0.0 4.0 61 92
- 3.006768 2 3 tcp 592 ------- 1 0.0 4.0 72 122
+ 3.006768 2 3 tcp 592 ------- 1 0.0 4.0 81 136
+ 3.009136 2 3 tcp 592 ------- 1 0.0 4.0 82 137
d 3.009136 2 3 tcp 592 ------- 1 0.0 4.0 82 137
- 3.022555 2 3 tcp 592 ------- 1 0.0 4.0 73 124
+ 3.022555 2 3 tcp 592 ------- 1 0.0 4.0 83 139
+ 3.024923 2 3 tcp 592 ------- 1 0.0 4.0 84 140
d 3.024923 2 3 tcp 592 ------- 1 0.0 4.0 84 140
- 3.038341 2 3 tcp 592 ------- 1 0.0 4.0 74 125
+ 3.038341 2 3 tcp 592 ------- 1 0.0 4.0 85 141
+ 3.040709 2 3 tcp 592 ------- 1 0.0 4.0 86 142
d 3.040709 2 3 tcp 592 ------- 1 0.0 4.0 86 142
- 3.054128 2 3 tcp 592 ------- 1 0.0 4.0 75 127
+ 3.054128 2 3 tcp 592 ------- 1 0.0 4.0 87 143
+ 3.056496 2 3 tcp 592 ------- 1 0.0 4.0 88 144
d 3.056496 2 3 tcp 592 ------- 1 0.0 4.0 88 144
- 3.069915 2 3 tcp 592 ------- 1 0.0 4.0 76 128
+ 3.069915 2 3 tcp 592 ------- 1 0.0 4.0 89 145
+ 3.072283 2 3 tcp 592 ------- 1 0.0 4.0 90 146
d 3.072283 2 3 tcp 592 ------- 1 0.0 4.0 90 146
r 3.080475 2 3 tcp 592 ------- 1 0.0 4.0 63 109
- 3.085701 2 3 tcp 592 ------- 1 0.0 4.0 77 130
+ 3.085701 2 3 tcp 592 ------- 1 0.0 4.0 91 147
+ 3.088069 2 3 tcp 592 ------- 1 0.0 4.0 92 148
d 3.088069 2 3 tcp 592 ------- 1 0.0 4.0 92 148
r 3.096261 2 3 tcp 592 ------- 1 0.0 4.0 64 110
- 3.101488 2 3 tcp 592 ------- 1 0.0 4.0 78 131
+ 3.101488 2 3 tcp 592 ------- 1 0.0 4.0 93 149
+ 3.103856 2 3 tcp 592 ------- 1 0.0 4.0 94 150
d 3.103856 2 3 tcp 592 ------- 1 0.0 4.0 94 150
r 3.112048 2 3 tcp 592 ------- 1 0.0 4.0 65 112
- 3.117275 2 3 tcp 592 ------- 1 0.0 4.0 79 133
+ 3.117275 2 3 tcp 592 ------- 1 0.0 4.0 95 152
+ 3.119643 2 3 tcp 592 ------- 1 0.0 4.0 96 153
d 3.119643 2 3 tcp 592 ------- 1 0.0 4.0 96 153
r 3.127835 2 3 tcp 592 ------- 1 0.0 4.0 66 113
- 3.133061 2 3 tcp 592 ------- 1 0.0 4.0 80 134
+ 3.133061 2 3 tcp 592 ------- 1 0.0 4.0 97 155
+ 3.135429 2 3 tcp 592 ------- 1 0.0 4.0 98 156
d 3.135429 2 3 tcp 592 ------- 1 0.0 4.0 98 156
r 3.143621 2 3 tcp 592 ------- 1 0.0 4.0 67 115
- 3.148848 2 3 tcp 592 ------- 1 0.0 4.0 81 136
+ 3.148848 2 3 tcp 592 ------- 1 0.0 4.0 99 158
+ 3.151216 2 3 tcp 592 ------- 1 0.0 4.0 100 159
d 3.151216 2 3 tcp 592 ------- 1 0.0 4.0 100 159
r 3.159408 2 3 tcp 592 ------- 1 0.0 4.0 68 116
- 3.164635 2 3 tcp 592 ------- 1 0.0 4.0 83 139
+ 3.164635 2 3 tcp 592 ------- 1 0.0 4.0 101 161
r 3.175195 2 3 tcp 592 ------- 1 0.0 4.0 69 118
- 3.180421 2 3 tcp 592 ------- 1 0.0 4.0 85 141
+ 3.180421 2 3 tcp 592 ------- 1 0.0 4.0 102 163
r 3.190981 2 3 tcp 592 ------- 1 0.0 4.0 70 119
- 3.196208 2 3 tcp 592 ------- 1 0.0 4.0 87 143
+ 3.196208 2 3 tcp 592 ---A--- 1 0.0 4.0 50 165
r 3.206768 2 3 tcp 592 ------- 1 0.0 4.0 71 121
- 3.211995 2 3 tcp 592 ------- 1 0.0 4.0 89 145
r 3.222555 2 3 tcp 592 ------- 1 0.0 4.0 72 122
- 3.227781 2 3 tcp 592 ------- 1 0.0 4.0 91 147
r 3.238341 2 3 tcp 592 ------- 1 0.0 4.0 73 124
- 3.243568 2 3 tcp 592 ------- 1 0.0 4.0 93 149
r 3.254128 2 3 tcp 592 ------- 1 0.0 4.0 74 125
- 3.259355 2 3 tcp 592 ------- 1 0.0 4.0 95 152
r 3.269915 2 3 tcp 592 ------- 1 0.0 4.0 75 127
- 3.275141 2 3 tcp 592 ------- 1 0.0 4.0 97 155
r 3.285701 2 3 tcp 592 ------- 1 0.0 4.0 76 128
- 3.290928 2 3 tcp 592 ------- 1 0.0 4.0 99 158
r 3.301488 2 3 tcp 592 ------- 1 0.0 4.0 77 130
- 3.306715 2 3 tcp 592 ------- 1 0.0 4.0 101 161
r 3.317275 2 3 tcp 592 ------- 1 0.0 4.0 78 131
- 3.322501 2 3 tcp 592 ------- 1 0.0 4.0 102 163
r 3.333061 2 3 tcp 592 ------- 1 0.0 4.0 79 133
- 3.338288 2 3 tcp 592 ---A--- 1 0.0 4.0 50 165
r 3.348848 2 3 tcp 592 ------- 1 0.0 4.0 80 134
r 3.364635 2 3 tcp 592 ------- 1 0.0 4.0 81 136
r 3.380421 2 3 tcp 592 ------- 1 0.0 4.0 83 139
r 3.396208 2 3 tcp 592 ------- 1 0.0 4.0 85 141
r 3.411995 2 3 tcp 592 ------- 1 0.0 4.0 87 143
r 3.427781 2 3 tcp 592 ------- 1 0.0 4.0 89 145
r 3.443568 2 3 tcp 592 ------- 1 0.0 4.0 91 147
r 3.459355 2 3 tcp 592 ------- 1 0.0 4.0 93 149
r 3.475141 2 3 tcp 592 ------- 1 0.0 4.0 95 152
r 3.490928 2 3 tcp 592 ------- 1 0.0 4.0 97 155
r 3.506715 2 3 tcp 592 ------- 1 0.0 4.0 99 158
r 3.522501 2 3 tcp 592 ------- 1 0.0 4.0 101 161
r 3.538288 2 3 tcp 592 ------- 1 0.0 4.0 102 163
r 3.554075 2 3 tcp 592 ---A--- 1 0.0 4.0 50 165
+ 3.673904 2 3 tcp 592 ------- 1 0.0 4.0 103 191
- 3.673904 2 3 tcp 592 ------- 1 0.0 4.0 103 191
+ 3.689691 2 3 tcp 592 ------- 1 0.0 4.0 104 192
- 3.689691 2 3 tcp 592 ------- 1 0.0 4.0 104 192
+ 3.705477 2 3 tcp 592 ------- 1 0.0 4.0 105 193
- 3.705477 2 3 tcp 592 ------- 1 0.0 4.0 105 193
+ 3.721264 2 3 tcp 592 ------- 1 0.0 4.0 106 194
- 3.721264 2 3 tcp 592 ------- 1 0.0 4.0 106 194
+ 3.737051 2 3 tcp 592 ------- 1 0.0 4.0 107 195
- 3.737051 2 3 tcp 592 ------- 1 0.0 4.0 107 195
+ 3.752837 2 3 tcp 592 ------- 1 0.0 4.0 108 196
- 3.752837 2 3 tcp 592 ------- 1 0.0 4.0 108 196
+ 3.768624 2 3 tcp 592 ------- 1 0.0 4.0 109 197
- 3.768624 2 3 tcp 592 ------- 1 0.0 4.0 109 197
+ 3.784411 2 3 tcp 592 ------- 1 0.0 4.0 110 198
- 3.784411 2 3 tcp 592 ------- 1 0.0 4.0 110 198
r 3.889691 2 3 tcp 592 ------- 1 0.0 4.0 103 191
r 3.905477 2 3 tcp 592 ------- 1 0.0 4.0 104 192
r 3.921264 2 3 tcp 592 ------- 1 0.0 4.0 105 193
r 3.937051 2 3 tcp 592 ------- 1 0.0 4.0 106 194
r 3.952837 2 3 tcp 592 ------- 1 0.0 4.0 107 195
r 3.968624 2 3 tcp 592 ------- 1 0.0 4.0 108 196
r 3.984411 2 3 tcp 592 ------- 1 0.0 4.0 109 197
r 4.000197 2 3 tcp 592 ------- 1 0.0 4.0 110 198
+ 4.530197 2 3 tcp 592 ---A--- 1 0.0 4.0 52 207
- 4.530197 2 3 tcp 592 ---A--- 1 0.0 4.0 52 207
r 4.745984 2 3 tcp 592 ---A--- 1 0.0 4.0 52 207
+ 4.992107 2 3 tcp 592 ------- 1 0.0 4.0 54 209
- 4.992107 2 3 tcp 592 ------- 1 0.0 4.0 54 209
+ 4.994475 2 3 tcp 592 ------- 1 0.0 4.0 55 210
- 5.007893 2 3 tcp 592 ------- 1 0.0 4.0 55 210
r 5.207893 2 3 tcp 592 ------- 1 0.0 4.0 54 209
r 5.22368 2 3 tcp 592 ------- 1 0.0 4.0 55 210
+ 5.454016 2 3 tcp 592 ------- 1 0.0 4.0 56 213
- 5.454016 2 3 tcp 592 ------- 1 0.0 4.0 56 213
+ 5.456384 2 3 tcp 592 ------- 1 0.0 4.0 57 214
+ 5.458752 2 3 tcp 592 ------- 1 0.0 4.0 58 215
- 5.469803 2 3 tcp 592 ------- 1 0.0 4.0 57 214
+ 5.469803 2 3 tcp 592 ------- 1 0.0 4.0 59 216
- 5.485589 2 3 tcp 592 ------- 1 0.0 4.0 58 215
- 5.501376 2 3 tcp 592 ------- 1 0.0 4.0 59 216
r 5.669803 2 3 tcp 592 ------- 1 0.0 4.0 56 213
r 5.685589 2 3 tcp 592 ------- 1 0.0 4.0 57 214
r 5.701376 2 3 tcp 592 ------- 1 0.0 4.0 58 215
r 5.717163 2 3 tcp 592 ------- 1 0.0 4.0 59 216
+ 5.915925 2 3 tcp 592 ------- 1 0.0 4.0 60 221
- 5.915925 2 3 tcp 592 ------- 1 0.0 4.0 60 221
+ 5.918293 2 3 tcp 592 ------- 1 0.0 4.0 61 222
- 5.931712 2 3 tcp 592 ------- 1 0.0 4.0 61 222
+ 5.931712 2 3 tcp 592 ------- 1 0.0 4.0 62 223
- 5.947499 2 3 tcp 592 ------- 1 0.0 4.0 62 223
+ 5.947499 2 3 tcp 592 ------- 1 0.0 4.0 63 224
+ 5.949867 2 3 tcp 592 ------- 1 0.0 4.0 64 225
- 5.963285 2 3 tcp 592 ------- 1 0.0 4.0 63 224
+ 5.963285 2 3 tcp 592 ------- 1 0.0 4.0 65 226
- 5.979072 2 3 tcp 592 ------- 1 0.0 4.0 64 225
- 5.994859 2 3 tcp 592 ------- 1 0.0 4.0 65 226
r 6.131712 2 3 tcp 592 ------- 1 0.0 4.0 60 221
r 6.147499 2 3 tcp 592 ------- 1 0.0 4.0 61 222
r 6.163285 2 3 tcp 592 ------- 1 0.0 4.0 62 223
r 6.179072 2 3 tcp 592 ------- 1 0.0 4.0 63 224
r 6.194859 2 3 tcp 592 ------- 1 0.0 4.0 64 225
r 6.210645 2 3 tcp 592 ------- 1 0.0 4.0 65 226
+ 6.377835 2 3 tcp 592 ------- 1 0.0 4.0 66 233
- 6.377835 2 3 tcp 592 ------- 1 0.0 4.0 66 233
+ 6.380203 2 3 tcp 592 ------- 1 0.0 4.0 67 234
- 6.393621 2 3 tcp 592 ------- 1 0.0 4.0 67 234
+ 6.393621 2 3 tcp 592 ------- 1 0.0 4.0 68 235
- 6.409408 2 3 tcp 592 ------- 1 0.0 4.0 68 235
+ 6.409408 2 3 tcp 592 ------- 1 0.0 4.0 82 236
+ 6.411776 2 3 tcp 592 ------- 1 0.0 4.0 83 237
+ 6.414144 2 3 tcp 592 ------- 1 0.0 4.0 84 238
+ 6.416512 2 3 tcp 592 ------- 1 0.0 4.0 85 239
+ 6.41888 2 3 tcp 592 ------- 1 0.0 4.0 86 240
+ 6.421248 2 3 tcp 592 ------- 1 0.0 4.0 87 241
+ 6.423616 2 3 tcp 592 ------- 1 0.0 4.0 88 242
- 6.425195 2 3 tcp 592 ------- 1 0.0 4.0 82 236
+ 6.425984 2 3 tcp 592 ------- 1 0.0 4.0 89 243
- 6.440981 2 3 tcp 592 ------- 1 0.0 4.0 83 237
+ 6.440981 2 3 tcp 592 ------- 1 0.0 4.0 90 244
- 6.456768 2 3 tcp 592 ------- 1 0.0 4.0 84 238
- 6.472555 2 3 tcp 592 ------- 1 0.0 4.0 85 239
- 6.488341 2 3 tcp 592 ------- 1 0.0 4.0 86 240
- 6.504128 2 3 tcp 592 ------- 1 0.0 4.0 87 241
- 6.519915 2 3 tcp 592 ------- 1 0.0 4.0 88 242
- 6.535701 2 3 tcp 592 ------- 1 0.0 4.0 89 243
- 6.551488 2 3 tcp 592 ------- 1 0.0 4.0 90 244
r 6.593621 2 3 tcp 592 ------- 1 0.0 4.0 66 233
r 6.609408 2 3 tcp 592 ------- 1 0.0 4.0 67 234
r 6.625195 2 3 tcp 592 ------- 1 0.0 4.0 68 235
r 6.640981 2 3 tcp 592 ------- 1 0.0 4.0 82 236
r 6.656768 2 3 tcp 592 ------- 1 0.0 4.0 83 237
r 6.672555 2 3 tcp 592 ------- 1 0.0 4.0 84 238
r 6.688341 2 3 tcp 592 ------- 1 0.0 4.0 85 239
r 6.704128 2 3 tcp 592 ------- 1 0.0 4.0 86 240
r 6.719915 2 3 tcp 592 ------- 1 0.0 4.0 87 241
r 6.735701 2 3 tcp 592 ------- 1 0.0 4.0 88 242
r 6.751488 2 3 tcp 592 ------- 1 0.0 4.0 89 243
r 6.767275 2 3 tcp 592 ------- 1 0.0 4.0 90 244
+ 6.887104 2 3 tcp 592 ------- 1 0.0 4.0 91 257
- 6.887104 2 3 tcp 592 ------- 1 0.0 4.0 91 257
+ 6.902891 2 3 tcp 592 ------- 1 0.0 4.0 92 258
- 6.902891 2 3 tcp 592 ------- 1 0.0 4.0 92 258
+ 6.918677 2 3 tcp 592 ------- 1 0.0 4.0 93 259
- 6.918677 2 3 tcp 592 ------- 1 0.0 4.0 93 259
+ 6.921045 2 3 tcp 592 ------- 1 0.0 4.0 94 260
- 6.934464 2 3 tcp 592 ------- 1 0.0 4.0 94 260
+ 6.934464 2 3 tcp 592 ------- 1 0.0 4.0 95 261
- 6.950251 2 3 tcp 592 ------- 1 0.0 4.0 95 261
+ 6.950251 2 3 tcp 592 ------- 1 0.0 4.0 96 262
+ 6.952619 2 3 tcp 592 ------- 1 0.0 4.0 97 263
- 6.966037 2 3 tcp 592 ------- 1 0.0 4.0 96 262
+ 6.966037 2 3 tcp 592 ------- 1 0.0 4.0 98 264
- 6.981824 2 3 tcp 592 ------- 1 0.0 4.0 97 263
+ 6.981824 2 3 tcp 592 ------- 1 0.0 4.0 99 265
+ 6.984192 2 3 tcp 592 ------- 1 0.0 4.0 100 266
- 6.997611 2 3 tcp 592 ------- 1 0.0 4.0 98 264
+ 6.997611 2 3 tcp 592 ------- 1 0.0 4.0 101 267
- 7.013397 2 3 tcp 592 ------- 1 0.0 4.0 99 265
+ 7.013397 2 3 tcp 592 ------- 1 0.0 4.0 102 268
+ 7.015765 2 3 tcp 592 ------- 1 0.0 4.0 103 269
- 7.029184 2 3 tcp 592 ------- 1 0.0 4.0 100 266
- 7.044971 2 3 tcp 592 ------- 1 0.0 4.0 101 267
- 7.060757 2 3 tcp 592 ------- 1 0.0 4.0 102 268
- 7.076544 2 3 tcp 592 ------- 1 0.0 4.0 103 269
r 7.102891 2 3 tcp 592 ------- 1 0.0 4.0 91 257
r 7.118677 2 3 tcp 592 ------- 1 0.0 4.0 92 258
r 7.134464 2 3 tcp 592 ------- 1 0.0 4.0 93 259
r 7.150251 2 3 tcp 592 ------- 1 0.0 4.0 94 260
r 7.166037 2 3 tcp 592 ------- 1 0.0 4.0 95 261
r 7.181824 2 3 tcp 592 ------- 1 0.0 4.0 96 262
r 7.197611 2 3 tcp 592 ------- 1 0.0 4.0 97 263
r 7.213397 2 3 tcp 592 ------- 1 0.0 4.0 98 264
r 7.229184 2 3 tcp 592 ------- 1 0.0 4.0 99 265
r 7.244971 2 3 tcp 592 ------- 1 0.0 4.0 100 266
r 7.260757 2 3 tcp 592 ------- 1 0.0 4.0 101 267
r 7.276544 2 3 tcp 592 ------- 1 0.0 4.0 102 268
r 7.292331 2 3 tcp 592 ------- 1 0.0 4.0 103 269
+ 7.349013 2 3 tcp 592 ------- 1 0.0 4.0 104 283
- 7.349013 2 3 tcp 592 ------- 1 0.0 4.0 104 283
+ 7.3648 2 3 tcp 592 ------- 1 0.0 4.0 105 284
- 7.3648 2 3 tcp 592 ------- 1 0.0 4.0 105 284
+ 7.380587 2 3 tcp 592 ------- 1 0.0 4.0 106 285
- 7.380587 2 3 tcp 592 ------- 1 0.0 4.0 106 285
+ 7.396373 2 3 tcp 592 ------- 1 0.0 4.0 107 286
- 7.396373 2 3 tcp 592 ------- 1 0.0 4.0 107 286
+ 7.41216 2 3 tcp 592 ------- 1 0.0 4.0 108 287
- 7.41216 2 3 tcp 592 ------- 1 0.0 4.0 108 287
+ 7.427947 2 3 tcp 592 ------- 1 0.0 4.0 109 288
- 7.427947 2 3 tcp 592 ------- 1 0.0 4.0 109 288
+ 7.443733 2 3 tcp 592 ------- 1 0.0 4.0 110 289
- 7.443733 2 3 tcp 592 ------- 1 0.0 4.0 110 289
+ 7.45952 2 3 tcp 592 ------- 1 0.0 4.0 111 290
- 7.45952 2 3 tcp 592 ------- 1 0.0 4.0 111 290
+ 7.475307 2 3 tcp 592 ------- 1 0.0 4.0 112 291
- 7.475307 2 3 tcp 592 ------- 1 0.0 4.0 112 291
+ 7.491093 2 3 tcp 592 ------- 1 0.0 4.0 113 292
- 7.491093 2 3 tcp 592 ------- 1 0.0 4.0 113 292
+ 7.493461 2 3 tcp 592 ------- 1 0.0 4.0 114 293
+ 7.495829 2 3 tcp 592 ------- 1 0.0 4.0 115 294
+ 7.498197 2 3 tcp 592 ------- 1 0.0 4.0 116 295
+ 7.500565 2 3 tcp 592 ------- 1 0.0 4.0 117 296
+ 7.502933 2 3 tcp 592 ------- 1 0.0 4.0 118 297
+ 7.505301 2 3 tcp 592 ------- 1 0.0 4.0 119 298
- 7.50688 2 3 tcp 592 ------- 1 0.0 4.0 114 293
+ 7.507669 2 3 tcp 592 ------- 1 0.0 4.0 120 299
+ 7.510037 2 3 tcp 592 ------- 1 0.0 4.0 121 300
+ 7.512405 2 3 tcp 592 ------- 1 0.0 4.0 122 301
+ 7.514773 2 3 tcp 592 ------- 1 0.0 4.0 123 302
- 7.522667 2 3 tcp 592 ------- 1 0.0 4.0 115 294
+ 7.522667 2 3 tcp 592 ------- 1 0.0 4.0 124 303
- 7.538453 2 3 tcp 592 ------- 1 0.0 4.0 116 295
- 7.55424 2 3 tcp 592 ------- 1 0.0 4.0 117 296
r 7.5648 2 3 tcp 592 ------- 1 0.0 4.0 104 283
- 7.570027 2 3 tcp 592 ------- 1 0.0 4.0 118 297
r 7.580587 2 3 tcp 592 ------- 1 0.0 4.0 105 284
- 7.585813 2 3 tcp 592 ------- 1 0.0 4.0 119 298
r 7.596373 2 3 tcp 592 ------- 1 0.0 4.0 106 285
- 7.6016 2 3 tcp 592 ------- 1 0.0 4.0 120 299
r 7.61216 2 3 tcp 592 ------- 1 0.0 4.0 107 286
- 7.617387 2 3 tcp 592 ------- 1 0.0 4.0 121 300
r 7.627947 2 3 tcp 592 ------- 1 0.0 4.0 108 287
- 7.633173 2 3 tcp 592 ------- 1 0.0 4.0 122 301
r 7.643733 2 3 tcp 592 ------- 1 0.0 4.0 109 288
- 7.64896 2 3 tcp 592 ------- 1 0.0 4.0 123 302
r 7.65952 2 3 tcp 592 ------- 1 0.0 4.0 110 289
- 7.664747 2 3 tcp 592 ------- 1 0.0 4.0 124 303
r 7.675307 2 3 tcp 592 ------- 1 0.0 4.0 111 290
r 7.691093 2 3 tcp 592 ------- 1 0.0 4.0 112 291
r 7.70688 2 3 tcp 592 ------- 1 0.0 4.0 113 292
r 7.722667 2 3 tcp 592 ------- 1 0.0 4.0 114 293
r 7.738453 2 3 tcp 592 ------- 1 0.0 4.0 115 294
r 7.75424 2 3 tcp 592 ------- 1 0.0 4.0 116 295
r 7.770027 2 3 tcp 592 ------- 1 0.0 4.0 117 296
r 7.785813 2 3 tcp 592 ------- 1 0.0 4.0 118 297
r 7.8016 2 3 tcp 592 ------- 1 0.0 4.0 119 298
r 7.817387 2 3 tcp 592 ------- 1 0.0 4.0 120 299
r 7.833173 2 3 tcp 592 ------- 1 0.0 4.0 121 300
r 7.84896 2 3 tcp 592 ------- 1 0.0 4.0 122 301
r 7.864747 2 3 tcp 592 ------- 1 0.0 4.0 123 302
r 7.880533 2 3 tcp 592 ------- 1 0.0 4.0 124 303
+ 7.953003 2 3 tcp 592 ------- 1 0.0 4.0 125 325
- 7.953003 2 3 tcp 592 ------- 1 0.0 4.0 125 325
+ 7.968789 2 3 tcp 592 ------- 1 0.0 4.0 126 326
- 7.968789 2 3 tcp 592 ------- 1 0.0 4.0 126 326
+ 7.984576 2 3 tcp 592 ------- 1 0.0 4.0 127 327
- 7.984576 2 3 tcp 592 ------- 1 0.0 4.0 127 327
+ 8.000363 2 3 tcp 592 ------- 1 0.0 4.0 128 328
- 8.000363 2 3 tcp 592 ------- 1 0.0 4.0 128 328
+ 8.016149 2 3 tcp 592 ------- 1 0.0 4.0 129 329
- 8.016149 2 3 tcp 592 ------- 1 0.0 4.0 129 329
+ 8.031936 2 3 tcp 592 ------- 1 0.0 4.0 130 330
- 8.031936 2 3 tcp 592 ------- 1 0.0 4.0 130 330
+ 8.034304 2 3 tcp 592 ------- 1 0.0 4.0 131 331
- 8.047723 2 3 tcp 592 ------- 1 0.0 4.0 131 331
+ 8.047723 2 3 tcp 592 ------- 1 0.0 4.0 132 332
- 8.063509 2 3 tcp 592 ------- 1 0.0 4.0 132 332
+ 8.063509 2 3 tcp 592 ------- 1 0.0 4.0 133 333
- 8.079296 2 3 tcp 592 ------- 1 0.0 4.0 133 333
+ 8.079296 2 3 tcp 592 ------- 1 0.0 4.0 134 334
- 8.095083 2 3 tcp 592 ------- 1 0.0 4.0 134 334
+ 8.095083 2 3 tcp 592 ------- 1 0.0 4.0 135 335
- 8.110869 2 3 tcp 592 ------- 1 0.0 4.0 135 335
+ 8.110869 2 3 tcp 592 ------- 1 0.0 4.0 136 336
- 8.126656 2 3 tcp 592 ------- 1 0.0 4.0 136 336
+ 8.126656 2 3 tcp 592 ------- 1 0.0 4.0 137 337
- 8.142443 2 3 tcp 592 ------- 1 0.0 4.0 137 337
r 8.168789 2 3 tcp 592 ------- 1 0.0 4.0 125 325
r 8.184576 2 3 tcp 592 ------- 1 0.0 4.0 126 326
r 8.200363 2 3 tcp 592 ------- 1 0.0 4.0 127 327
r 8.216149 2 3 tcp 592 ------- 1 0.0 4.0 128 328
r 8.231936 2 3 tcp 592 ------- 1 0.0 4.0 129 329
r 8.247723 2 3 tcp 592 ------- 1 0.0 4.0 130 330
r 8.263509 2 3 tcp 592 ------- 1 0.0 4.0 131 331
r 8.279296 2 3 tcp 592 ------- 1 0.0 4.0 132 332
r 8.295083 2 3 tcp 592 ------- 1 0.0 4.0 133 333
r 8.310869 2 3 tcp 592 ------- 1 0.0 4.0 134 334
r 8.326656 2 3 tcp 592 ------- 1 0.0 4.0 135 335
r 8.342443 2 3 tcp 592 ------- 1 0.0 4.0 136 336
r 8.358229 2 3 tcp 592 ------- 1 0.0 4.0 137 337
+ 8.414912 2 3 tcp 592 ------- 1 0.0 4.0 138 351
- 8.414912 2 3 tcp 592 ------- 1 0.0 4.0 138 351
+ 8.430699 2 3 tcp 592 ------- 1 0.0 4.0 139 352
- 8.430699 2 3 tcp 592 ------- 1 0.0 4.0 139 352
+ 8.446485 2 3 tcp 592 ------- 1 0.0 4.0 140 353
- 8.446485 2 3 tcp 592 ------- 1 0.0 4.0 140 353
+ 8.462272 2 3 tcp 592 ------- 1 0.0 4.0 141 354
- 8.462272 2 3 tcp 592 ------- 1 0.0 4.0 141 354
+ 8.478059 2 3 tcp 592 ------- 1 0.0 4.0 142 355
- 8.478059 2 3 tcp 592 ------- 1 0.0 4.0 142 355
+ 8.493845 2 3 tcp 592 ------- 1 0.0 4.0 143 356
- 8.493845 2 3 tcp 592 ------- 1 0.0 4.0 143 356
+ 8.509632 2 3 tcp 592 ------- 1 0.0 4.0 144 357
- 8.509632 2 3 tcp 592 ------- 1 0.0 4.0 144 357
+ 8.512 2 3 tcp 592 ------- 1 0.0 4.0 145 358
- 8.525419 2 3 tcp 592 ------- 1 0.0 4.0 145 358
+ 8.525419 2 3 tcp 592 ------- 1 0.0 4.0 146 359
- 8.541205 2 3 tcp 592 ------- 1 0.0 4.0 146 359
+ 8.541205 2 3 tcp 592 ------- 1 0.0 4.0 147 360
- 8.556992 2 3 tcp 592 ------- 1 0.0 4.0 147 360
+ 8.556992 2 3 tcp 592 ------- 1 0.0 4.0 148 361
- 8.572779 2 3 tcp 592 ------- 1 0.0 4.0 148 361
+ 8.572779 2 3 tcp 592 ------- 1 0.0 4.0 149 362
- 8.588565 2 3 tcp 592 ------- 1 0.0 4.0 149 362
+ 8.588565 2 3 tcp 592 ------- 1 0.0 4.0 150 363
- 8.604352 2 3 tcp 592 ------- 1 0.0 4.0 150 363
+ 8.604352 2 3 tcp 592 ------- 1 0.0 4.0 151 364
- 8.620139 2 3 tcp 592 ------- 1 0.0 4.0 151 364
r 8.630699 2 3 tcp 592 ------- 1 0.0 4.0 138 351
r 8.646485 2 3 tcp 592 ------- 1 0.0 4.0 139 352
r 8.662272 2 3 tcp 592 ------- 1 0.0 4.0 140 353
r 8.678059 2 3 tcp 592 ------- 1 0.0 4.0 141 354
r 8.693845 2 3 tcp 592 ------- 1 0.0 4.0 142 355
r 8.709632 2 3 tcp 592 ------- 1 0.0 4.0 143 356
r 8.725419 2 3 tcp 592 ------- 1 0.0 4.0 144 357
r 8.741205 2 3 tcp 592 ------- 1 0.0 4.0 145 358
r 8.756992 2 3 tcp 592 ------- 1 0.0 4.0 146 359
r 8.772779 2 3 tcp 592 ------- 1 0.0 4.0 147 360
r 8.788565 2 3 tcp 592 ------- 1 0.0 4.0 148 361
r 8.804352 2 3 tcp 592 ------- 1 0.0 4.0 149 362
r 8.820139 2 3 tcp 592 ------- 1 0.0 4.0 150 363
r 8.835925 2 3 tcp 592 ------- 1 0.0 4.0 151 364
+ 8.876821 2 3 tcp 592 ------- 1 0.0 4.0 152 379
- 8.876821 2 3 tcp 592 ------- 1 0.0 4.0 152 379
+ 8.892608 2 3 tcp 592 ------- 1 0.0 4.0 153 380
- 8.892608 2 3 tcp 592 ------- 1 0.0 4.0 153 380
+ 8.908395 2 3 tcp 592 ------- 1 0.0 4.0 154 381
- 8.908395 2 3 tcp 592 ------- 1 0.0 4.0 154 381
+ 8.924181 2 3 tcp 592 ------- 1 0.0 4.0 155 382
- 8.924181 2 3 tcp 592 ------- 1 0.0 4.0 155 382
+ 8.939968 2 3 tcp 592 ------- 1 0.0 4.0 156 383
- 8.939968 2 3 tcp 592 ------- 1 0.0 4.0 156 383
+ 8.955755 2 3 tcp 592 ------- 1 0.0 4.0 157 384
- 8.955755 2 3 tcp 592 ------- 1 0.0 4.0 157 384
+ 8.971541 2 3 tcp 592 ------- 1 0.0 4.0 158 385
- 8.971541 2 3 tcp 592 ------- 1 0.0 4.0 158 385
+ 8.987328 2 3 tcp 592 ------- 1 0.0 4.0 159 386
- 8.987328 2 3 tcp 592 ------- 1 0.0 4.0 159 386
+ 9.003115 2 3 tcp 592 ------- 1 0.0 4.0 160 387
- 9.003115 2 3 tcp 592 ------- 1 0.0 4.0 160 387
+ 9.005483 2 3 tcp 592 ------- 1 0.0 4.0 161 388
- 9.018901 2 3 tcp 592 ------- 1 0.0 4.0 161 388
+ 9.018901 2 3 tcp 592 ------- 1 0.0 4.0 162 389
- 9.034688 2 3 tcp 592 ------- 1 0.0 4.0 162 389
+ 9.034688 2 3 tcp 592 ------- 1 0.0 4.0 163 390
- 9.050475 2 3 tcp 592 ------- 1 0.0 4.0 163 390
+ 9.050475 2 3 tcp 592 ------- 1 0.0 4.0 164 391
- 9.066261 2 3 tcp 592 ------- 1 0.0 4.0 164 391
+ 9.066261 2 3 tcp 592 ------- 1 0.0 4.0 165 392
- 9.082048 2 3 tcp 592 ------- 1 0.0 4.0 165 392
+ 9.082048 2 3 tcp 592 ------- 1 0.0 4.0 166 393
r 9.092608 2 3 tcp 592 ------- 1 0.0 4.0 152 379
- 9.097835 2 3 tcp 592 ------- 1 0.0 4.0 166 393
r 9.108395 2 3 tcp 592 ------- 1 0.0 4.0 153 380
r 9.124181 2 3 tcp 592 ------- 1 0.0 4.0 154 381
r 9.139968 2 3 tcp 592 ------- 1 0.0 4.0 155 382
r 9.155755 2 3 tcp 592 ------- 1 0.0 4.0 156 383
r 9.171541 2 3 tcp 592 ------- 1 0.0 4.0 157 384
r 9.187328 2 3 tcp 592 ------- 1 0.0 4.0 158 385
r 9.203115 2 3 tcp 592 ------- 1 0.0 4.0 159 386
r 9.218901 2 3 tcp 592 ------- 1 0.0 4.0 160 387
r 9.234688 2 3 tcp 592 ------- 1 0.0 4.0 161 388
r 9.250475 2 3 tcp 592 ------- 1 0.0 4.0 162 389
r 9.266261 2 3 tcp 592 ------- 1 0.0 4.0 163 390
r 9.282048 2 3 tcp 592 ------- 1 0.0 4.0 164 391
r 9.297835 2 3 tcp 592 ------- 1 0.0 4.0 165 392
r 9.313621 2 3 tcp 592 ------- 1 0.0 4.0 166 393
+ 9.338731 2 3 tcp 592 ------- 1 0.0 4.0 167 409
- 9.338731 2 3 tcp 592 ------- 1 0.0 4.0 167 409
+ 9.354517 2 3 tcp 592 ------- 1 0.0 4.0 168 410