+ 0.11016 2 3 tcp 40 ------- 1 0.0 4.0 0 0
- 0.11016 2 3 tcp 40 ------- 1 0.0 4.0 0 0
r 0.311227 2 3 tcp 40 ------- 1 0.0 4.0 0 0
+ 0.555141 2 3 tcp 592 ------- 1 0.0 4.0 1 2
- 0.555141 2 3 tcp 592 ------- 1 0.0 4.0 1 2
+ 0.557509 2 3 tcp 592 ------- 1 0.0 4.0 2 3
- 0.570928 2 3 tcp 592 ------- 1 0.0 4.0 2 3
r 0.770928 2 3 tcp 592 ------- 1 0.0 4.0 1 2
r 0.786715 2 3 tcp 592 ------- 1 0.0 4.0 2 3
+ 1.017051 2 3 tcp 592 ------- 1 0.0 4.0 3 6
- 1.017051 2 3 tcp 592 ------- 1 0.0 4.0 3 6
+ 1.019419 2 3 tcp 592 ------- 1 0.0 4.0 4 7
- 1.032837 2 3 tcp 592 ------- 1 0.0 4.0 4 7
+ 1.032837 2 3 tcp 592 ------- 1 0.0 4.0 5 8
+ 1.035205 2 3 tcp 592 ------- 1 0.0 4.0 6 9
- 1.048624 2 3 tcp 592 ------- 1 0.0 4.0 5 8
- 1.064411 2 3 tcp 592 ------- 1 0.0 4.0 6 9
r 1.232837 2 3 tcp 592 ------- 1 0.0 4.0 3 6
r 1.248624 2 3 tcp 592 ------- 1 0.0 4.0 4 7
r 1.264411 2 3 tcp 592 ------- 1 0.0 4.0 5 8
r 1.280197 2 3 tcp 592 ------- 1 0.0 4.0 6 9
+ 1.47896 2 3 tcp 592 ------- 1 0.0 4.0 7 14
- 1.47896 2 3 tcp 592 ------- 1 0.0 4.0 7 14
+ 1.481328 2 3 tcp 592 ------- 1 0.0 4.0 8 15
- 1.494747 2 3 tcp 592 ------- 1 0.0 4.0 8 15
+ 1.494747 2 3 tcp 592 ------- 1 0.0 4.0 9 16
+ 1.497115 2 3 tcp 592 ------- 1 0.0 4.0 10 17
- 1.510533 2 3 tcp 592 ------- 1 0.0 4.0 9 16
+ 1.510533 2 3 tcp 592 ------- 1 0.0 4.0 11 18
+ 1.512901 2 3 tcp 592 ------- 1 0.0 4.0 12 19
- 1.52632 2 3 tcp 592 ------- 1 0.0 4.0 10 17
+ 1.52632 2 3 tcp 592 ------- 1 0.0 4.0 13 20
+ 1.528688 2 3 tcp 592 ------- 1 0.0 4.0 14 21
- 1.542107 2 3 tcp 592 ------- 1 0.0 4.0 11 18
- 1.557893 2 3 tcp 592 ------- 1 0.0 4.0 12 19
- 1.57368 2 3 tcp 592 ------- 1 0.0 4.0 13 20
- 1.589467 2 3 tcp 592 ------- 1 0.0 4.0 14 21
r 1.694747 2 3 tcp 592 ------- 1 0.0 4.0 7 14
r 1.710533 2 3 tcp 592 ------- 1 0.0 4.0 8 15
r 1.72632 2 3 tcp 592 ------- 1 0.0 4.0 9 16
r 1.742107 2 3 tcp 592 ------- 1 0.0 4.0 10 17
r 1.757893 2 3 tcp 592 ------- 1 0.0 4.0 11 18
r 1.77368 2 3 tcp 592 ------- 1 0.0 4.0 12 19
r 1.789467 2 3 tcp 592 ------- 1 0.0 4.0 13 20
r 1.805253 2 3 tcp 592 ------- 1 0.0 4.0 14 21
+ 1.940869 2 3 tcp 592 ------- 1 0.0 4.0 15 30
- 1.940869 2 3 tcp 592 ------- 1 0.0 4.0 15 30
+ 1.943237 2 3 tcp 592 ------- 1 0.0 4.0 16 31
- 1.956656 2 3 tcp 592 ------- 1 0.0 4.0 16 31
+ 1.956656 2 3 tcp 592 ------- 1 0.0 4.0 17 32
+ 1.959024 2 3 tcp 592 ------- 1 0.0 4.0 18 33
- 1.972443 2 3 tcp 592 ------- 1 0.0 4.0 17 32
+ 1.972443 2 3 tcp 592 ------- 1 0.0 4.0 19 34
+ 1.974811 2 3 tcp 592 ------- 1 0.0 4.0 20 35
- 1.988229 2 3 tcp 592 ------- 1 0.0 4.0 18 33
+ 1.988229 2 3 tcp 592 ------- 1 0.0 4.0 21 36
+ 1.990597 2 3 tcp 592 ------- 1 0.0 4.0 22 37
- 2.004016 2 3 tcp 592 ------- 1 0.0 4.0 19 34
+ 2.004016 2 3 tcp 592 ------- 1 0.0 4.0 23 38
+ 2.006384 2 3 tcp 592 ------- 1 0.0 4.0 24 39
- 2.019803 2 3 tcp 592 ------- 1 0.0 4.0 20 35
+ 2.019803 2 3 tcp 592 ------- 1 0.0 4.0 25 40
+ 2.022171 2 3 tcp 592 ------- 1 0.0 4.0 26 41
- 2.035589 2 3 tcp 592 ------- 1 0.0 4.0 21 36
+ 2.035589 2 3 tcp 592 ------- 1 0.0 4.0 27 42
+ 2.037957 2 3 tcp 592 ------- 1 0.0 4.0 28 43
- 2.051376 2 3 tcp 592 ------- 1 0.0 4.0 22 37
+ 2.051376 2 3 tcp 592 ------- 1 0.0 4.0 29 44
+ 2.053744 2 3 tcp 592 ------- 1 0.0 4.0 30 45
- 2.067163 2 3 tcp 592 ------- 1 0.0 4.0 23 38
- 2.082949 2 3 tcp 592 ------- 1 0.0 4.0 24 39
- 2.098736 2 3 tcp 592 ------- 1 0.0 4.0 25 40
- 2.114523 2 3 tcp 592 ------- 1 0.0 4.0 26 41
- 2.130309 2 3 tcp 592 ------- 1 0.0 4.0 27 42
- 2.146096 2 3 tcp 592 ------- 1 0.0 4.0 28 43
r 2.156656 2 3 tcp 592 ------- 1 0.0 4.0 15 30
- 2.161883 2 3 tcp 592 ------- 1 0.0 4.0 29 44
r 2.172443 2 3 tcp 592 ------- 1 0.0 4.0 16 31
- 2.177669 2 3 tcp 592 ------- 1 0.0 4.0 30 45
r 2.188229 2 3 tcp 592 ------- 1 0.0 4.0 17 32
r 2.204016 2 3 tcp 592 ------- 1 0.0 4.0 18 33
r 2.219803 2 3 tcp 592 ------- 1 0.0 4.0 19 34
r 2.235589 2 3 tcp 592 ------- 1 0.0 4.0 20 35
r 2.251376 2 3 tcp 592 ------- 1 0.0 4.0 21 36
r 2.267163 2 3 tcp 592 ------- 1 0.0 4.0 22 37
r 2.282949 2 3 tcp 592 ------- 1 0.0 4.0 23 38
r 2.298736 2 3 tcp 592 ------- 1 0.0 4.0 24 39
r 2.314523 2 3 tcp 592 ------- 1 0.0 4.0 25 40
r 2.330309 2 3 tcp 592 ------- 1 0.0 4.0 26 41
r 2.346096 2 3 tcp 592 ------- 1 0.0 4.0 27 42
r 2.361883 2 3 tcp 592 ------- 1 0.0 4.0 28 43
r 2.377669 2 3 tcp 592 ------- 1 0.0 4.0 29 44
r 2.393456 2 3 tcp 592 ------- 1 0.0 4.0 30 45
+ 2.402779 2 3 tcp 592 ------- 1 0.0 4.0 31 61
- 2.402779 2 3 tcp 592 ------- 1 0.0 4.0 31 61
+ 2.405147 2 3 tcp 592 ------- 1 0.0 4.0 32 62
- 2.418565 2 3 tcp 592 ------- 1 0.0 4.0 32 62
+ 2.418565 2 3 tcp 592 ------- 1 0.0 4.0 33 64
+ 2.420933 2 3 tcp 592 ------- 1 0.0 4.0 34 65
- 2.434352 2 3 tcp 592 ------- 1 0.0 4.0 33 64
+ 2.434352 2 3 tcp 592 ------- 1 0.0 4.0 35 66
+ 2.43672 2 3 tcp 592 ------- 1 0.0 4.0 36 67
- 2.450139 2 3 tcp 592 ------- 1 0.0 4.0 34 65
+ 2.450139 2 3 tcp 592 ------- 1 0.0 4.0 37 68
+ 2.452507 2 3 tcp 592 ------- 1 0.0 4.0 38 69
- 2.465925 2 3 tcp 592 ------- 1 0.0 4.0 35 66
+ 2.465925 2 3 tcp 592 ------- 1 0.0 4.0 39 70
+ 2.468293 2 3 tcp 592 ------- 1 0.0 4.0 40 71
- 2.481712 2 3 tcp 592 ------- 1 0.0 4.0 36 67
+ 2.481712 2 3 tcp 592 ------- 1 0.0 4.0 41 72
+ 2.48408 2 3 tcp 592 ------- 1 0.0 4.0 42 73
- 2.497499 2 3 tcp 592 ------- 1 0.0 4.0 37 68
+ 2.497499 2 3 tcp 592 ------- 1 0.0 4.0 43 74
+ 2.499867 2 3 tcp 592 ------- 1 0.0 4.0 44 75
- 2.513285 2 3 tcp 592 ------- 1 0.0 4.0 38 69
+ 2.513285 2 3 tcp 592 ------- 1 0.0 4.0 45 76
+ 2.515653 2 3 tcp 592 ------- 1 0.0 4.0 46 77
- 2.529072 2 3 tcp 592 ------- 1 0.0 4.0 39 70
+ 2.529072 2 3 tcp 592 ------- 1 0.0 4.0 47 78
+ 2.53144 2 3 tcp 592 ------- 1 0.0 4.0 48 79
- 2.544859 2 3 tcp 592 ------- 1 0.0 4.0 40 71
+ 2.544859 2 3 tcp 592 ------- 1 0.0 4.0 49 80
+ 2.547227 2 3 tcp 592 ------- 1 0.0 4.0 50 81
d 2.547227 2 3 tcp 592 ------- 1 0.0 4.0 50 81
- 2.560645 2 3 tcp 592 ------- 1 0.0 4.0 41 72
+ 2.560645 2 3 tcp 592 ------- 1 0.0 4.0 51 82
+ 2.563013 2 3 tcp 592 ------- 1 0.0 4.0 52 83
d 2.563013 2 3 tcp 592 ------- 1 0.0 4.0 52 83
- 2.576432 2 3 tcp 592 ------- 1 0.0 4.0 42 73
+ 2.576432 2 3 tcp 592 ------- 1 0.0 4.0 53 84
+ 2.5788 2 3 tcp 592 ------- 1 0.0 4.0 54 85
d 2.5788 2 3 tcp 592 ------- 1 0.0 4.0 54 85
- 2.592219 2 3 tcp 592 ------- 1 0.0 4.0 43 74
+ 2.592219 2 3 tcp 592 ------- 1 0.0 4.0 55 86
+ 2.594587 2 3 tcp 592 ------- 1 0.0 4.0 56 87
d 2.594587 2 3 tcp 592 ------- 1 0.0 4.0 56 87
- 2.608005 2 3 tcp 592 ------- 1 0.0 4.0 44 75
+ 2.608005 2 3 tcp 592 ------- 1 0.0 4.0 57 88
+ 2.610373 2 3 tcp 592 ------- 1 0.0 4.0 58 89
d 2.610373 2 3 tcp 592 ------- 1 0.0 4.0 58 89
r 2.618565 2 3 tcp 592 ------- 1 0.0 4.0 31 61
- 2.623792 2 3 tcp 592 ------- 1 0.0 4.0 45 76
+ 2.623792 2 3 tcp 592 ------- 1 0.0 4.0 59 90
+ 2.62616 2 3 tcp 592 ------- 1 0.0 4.0 60 91
d 2.62616 2 3 tcp 592 ------- 1 0.0 4.0 60 91
r 2.634352 2 3 tcp 592 ------- 1 0.0 4.0 32 62
- 2.639579 2 3 tcp 592 ------- 1 0.0 4.0 46 77
+ 2.639579 2 3 tcp 592 ------- 1 0.0 4.0 61 92
+ 2.641947 2 3 tcp 592 ------- 1 0.0 4.0 62 93
d 2.641947 2 3 tcp 592 ------- 1 0.0 4.0 62 93
r 2.650139 2 3 tcp 592 ------- 1 0.0 4.0 33 64
- 2.655365 2 3 tcp 592 ------- 1 0.0 4.0 47 78
r 2.665925 2 3 tcp 592 ------- 1 0.0 4.0 34 65
- 2.671152 2 3 tcp 592 ------- 1 0.0 4.0 48 79
r 2.681712 2 3 tcp 592 ------- 1 0.0 4.0 35 66
- 2.686939 2 3 tcp 592 ------- 1 0.0 4.0 49 80
r 2.697499 2 3 tcp 592 ------- 1 0.0 4.0 36 67
- 2.702725 2 3 tcp 592 ------- 1 0.0 4.0 51 82
r 2.713285 2 3 tcp 592 ------- 1 0.0 4.0 37 68
- 2.718512 2 3 tcp 592 ------- 1 0.0 4.0 53 84
r 2.729072 2 3 tcp 592 ------- 1 0.0 4.0 38 69
- 2.734299 2 3 tcp 592 ------- 1 0.0 4.0 55 86
r 2.744859 2 3 tcp 592 ------- 1 0.0 4.0 39 70
- 2.750085 2 3 tcp 592 ------- 1 0.0 4.0 57 88
r 2.760645 2 3 tcp 592 ------- 1 0.0 4.0 40 71
- 2.765872 2 3 tcp 592 ------- 1 0.0 4.0 59 90
r 2.776432 2 3 tcp 592 ------- 1 0.0 4.0 41 72
- 2.781659 2 3 tcp 592 ------- 1 0.0 4.0 61 92
r 2.792219 2 3 tcp 592 ------- 1 0.0 4.0 42 73
r 2.808005 2 3 tcp 592 ------- 1 0.0 4.0 43 74
r 2.823792 2 3 tcp 592 ------- 1 0.0 4.0 44 75
r 2.839579 2 3 tcp 592 ------- 1 0.0 4.0 45 76
r 2.855365 2 3 tcp 592 ------- 1 0.0 4.0 46 77
+ 2.864688 2 3 tcp 592 ------- 1 0.0 4.0 63 109
- 2.864688 2 3 tcp 592 ------- 1 0.0 4.0 63 109
+ 2.867056 2 3 tcp 592 ------- 1 0.0 4.0 64 110
r 2.871152 2 3 tcp 592 ------- 1 0.0 4.0 47 78
- 2.880475 2 3 tcp 592 ------- 1 0.0 4.0 64 110
+ 2.880475 2 3 tcp 592 ------- 1 0.0 4.0 65 112
+ 2.882843 2 3 tcp 592 ------- 1 0.0 4.0 66 113
r 2.886939 2 3 tcp 592 ------- 1 0.0 4.0 48 79
- 2.896261 2 3 tcp 592 ------- 1 0.0 4.0 65 112
+ 2.896261 2 3 tcp 592 ------- 1 0.0 4.0 67 115
+ 2.898629 2 3 tcp 592 ------- 1 0.0 4.0 68 116
r 2.902725 2 3 tcp 592 ------- 1 0.0 4.0 49 80
- 2.912048 2 3 tcp 592 ------- 1 0.0 4.0 66 113
+ 2.912048 2 3 tcp 592 ------- 1 0.0 4.0 69 118
+ 2.914416 2 3 tcp 592 ------- 1 0.0 4.0 70 119
r 2.918512 2 3 tcp 592 ------- 1 0.0 4.0 51 82
- 2.927835 2 3 tcp 592 ------- 1 0.0 4.0 67 115
+ 2.927835 2 3 tcp 592 ------- 1 0.0 4.0 71 121
+ 2.930203 2 3 tcp 592 ------- 1 0.0 4.0 72 122
r 2.934299 2 3 tcp 592 ------- 1 0.0 4.0 53 84
- 2.943621 2 3 tcp 592 ------- 1 0.0 4.0 68 116
+ 2.943621 2 3 tcp 592 ------- 1 0.0 4.0 73 124
+ 2.945989 2 3 tcp 592 ------- 1 0.0 4.0 74 125
r 2.950085 2 3 tcp 592 ------- 1 0.0 4.0 55 86
- 2.959408 2 3 tcp 592 ------- 1 0.0 4.0 69 118
+ 2.959408 2 3 tcp 592 ------- 1 0.0 4.0 75 127
+ 2.961776 2 3 tcp 592 ------- 1 0.0 4.0 76 128
r 2.965872 2 3 tcp 592 ------- 1 0.0 4.0 57 88
- 2.975195 2 3 tcp 592 ------- 1 0.0 4.0 70 119
+ 2.975195 2 3 tcp 592 ------- 1 0.0 4.0 77 130
+ 2.977563 2 3 tcp 592 ------- 1 0.0 4.0 78 131
r 2.981659 2 3 tcp 592 ------- 1 0.0 4.0 59 90
- 2.990981 2 3 tcp 592 ------- 1 0.0 4.0 71 121
+ 2.990981 2 3 tcp 592 ------- 1 0.0 4.0 79 133
+ 2.993349 2 3 tcp 592 ------- 1 0.0 4.0 80 134
r 2.997445 2 3 tcp 592 ------- 1 0.0 4.0 61 92
- 3.006768 2 3 tcp 592 ------- 1 0.0 4.0 72 122
+ 3.006768 2 3 tcp 592 ------- 1 0.0 4.0 81 136
+ 3.009136 2 3 tcp 592 ------- 1 0.0 4.0 82 137
d 3.009136 2 3 tcp 592 ------- 1 0.0 4.0 82 137
- 3.022555 2 3 tcp 592 ------- 1 0.0 4.0 73 124
+ 3.022555 2 3 tcp 592 ------- 1 0.0 4.0 83 139
+ 3.024923 2 3 tcp 592 ------- 1 0.0 4.0 84 140
d 3.024923 2 3 tcp 592 ------- 1 0.0 4.0 84 140
- 3.038341 2 3 tcp 592 ------- 1 0.0 4.0 74 125
+ 3.038341 2 3 tcp 592 ------- 1 0.0 4.0 85 141
+ 3.040709 2 3 tcp 592 ------- 1 0.0 4.0 86 142
d 3.040709 2 3 tcp 592 ------- 1 0.0 4.0 86 142
- 3.054128 2 3 tcp 592 ------- 1 0.0 4.0 75 127
+ 3.054128 2 3 tcp 592 ------- 1 0.0 4.0 87 143
+ 3.056496 2 3 tcp 592 ------- 1 0.0 4.0 88 144
d 3.056496 2 3 tcp 592 ------- 1 0.0 4.0 88 144
- 3.069915 2 3 tcp 592 ------- 1 0.0 4.0 76 128
+ 3.069915 2 3 tcp 592 ------- 1 0.0 4.0 89 145
+ 3.072283 2 3 tcp 592 ------- 1 0.0 4.0 90 146
d 3.072283 2 3 tcp 592 ------- 1 0.0 4.0 90 146
r 3.080475 2 3 tcp 592 ------- 1 0.0 4.0 63 109
- 3.085701 2 3 tcp 592 ------- 1 0.0 4.0 77 130
+ 3.085701 2 3 tcp 592 ------- 1 0.0 4.0 91 147
+ 3.088069 2 3 tcp 592 ------- 1 0.0 4.0 92 148
d 3.088069 2 3 tcp 592 ------- 1 0.0 4.0 92 148
r 3.096261 2 3 tcp 592 ------- 1 0.0 4.0 64 110
- 3.101488 2 3 tcp 592 ------- 1 0.0 4.0 78 131
+ 3.101488 2 3 tcp 592 ------- 1 0.0 4.0 93 149
+ 3.103856 2 3 tcp 592 ------- 1 0.0 4.0 94 150
d 3.103856 2 3 tcp 592 ------- 1 0.0 4.0 94 150
r 3.112048 2 3 tcp 592 ------- 1 0.0 4.0 65 112
- 3.117275 2 3 tcp 592 ------- 1 0.0 4.0 79 133
+ 3.117275 2 3 tcp 592 ------- 1 0.0 4.0 95 152
+ 3.119643 2 3 tcp 592 ------- 1 0.0 4.0 96 153
d 3.119643 2 3 tcp 592 ------- 1 0.0 4.0 96 153
r 3.127835 2 3 tcp 592 ------- 1 0.0 4.0 66 113
- 3.133061 2 3 tcp 592 ------- 1 0.0 4.0 80 134
+ 3.133061 2 3 tcp 592 ------- 1 0.0 4.0 97 155
+ 3.135429 2 3 tcp 592 ------- 1 0.0 4.0 98 156
d 3.135429 2 3 tcp 592 ------- 1 0.0 4.0 98 156
r 3.143621 2 3 tcp 592 ------- 1 0.0 4.0 67 115
- 3.148848 2 3 tcp 592 ------- 1 0.0 4.0 81 136
+ 3.148848 2 3 tcp 592 ------- 1 0.0 4.0 99 158
+ 3.151216 2 3 tcp 592 ------- 1 0.0 4.0 100 159
d 3.151216 2 3 tcp 592 ------- 1 0.0 4.0 100 159
r 3.159408 2 3 tcp 592 ------- 1 0.0 4.0 68 116
- 3.164635 2 3 tcp 592 ------- 1 0.0 4.0 83 139
+ 3.164635 2 3 tcp 592 ------- 1 0.0 4.0 101 161
r 3.175195 2 3 tcp 592 ------- 1 0.0 4.0 69 118
- 3.180421 2 3 tcp 592 ------- 1 0.0 4.0 85 141
+ 3.180421 2 3 tcp 592 ------- 1 0.0 4.0 102 163
r 3.190981 2 3 tcp 592 ------- 1 0.0 4.0 70 119
- 3.196208 2 3 tcp 592 ------- 1 0.0 4.0 87 143
+ 3.196208 2 3 tcp 592 ---A--- 1 0.0 4.0 50 165
r 3.206768 2 3 tcp 592 ------- 1 0.0 4.0 71 121
- 3.211995 2 3 tcp 592 ------- 1 0.0 4.0 89 145
r 3.222555 2 3 tcp 592 ------- 1 0.0 4.0 72 122
- 3.227781 2 3 tcp 592 ------- 1 0.0 4.0 91 147
r 3.238341 2 3 tcp 592 ------- 1 0.0 4.0 73 124
- 3.243568 2 3 tcp 592 ------- 1 0.0 4.0 93 149
r 3.254128 2 3 tcp 592 ------- 1 0.0 4.0 74 125
- 3.259355 2 3 tcp 592 ------- 1 0.0 4.0 95 152
r 3.269915 2 3 tcp 592 ------- 1 0.0 4.0 75 127
- 3.275141 2 3 tcp 592 ------- 1 0.0 4.0 97 155
r 3.285701 2 3 tcp 592 ------- 1 0.0 4.0 76 128
- 3.290928 2 3 tcp 592 ------- 1 0.0 4.0 99 158
r 3.301488 2 3 tcp 592 ------- 1 0.0 4.0 77 130
- 3.306715 2 3 tcp 592 ------- 1 0.0 4.0 101 161
r 3.317275 2 3 tcp 592 ------- 1 0.0 4.0 78 131
- 3.322501 2 3 tcp 592 ------- 1 0.0 4.0 102 163
r 3.333061 2 3 tcp 592 ------- 1 0.0 4.0 79 133
- 3.338288 2 3 tcp 592 ---A--- 1 0.0 4.0 50 165
r 3.348848 2 3 tcp 592 ------- 1 0.0 4.0 80 134
r 3.364635 2 3 tcp 592 ------- 1 0.0 4.0 81 136
r 3.380421 2 3 tcp 592 ------- 1 0.0 4.0 83 139
r 3.396208 2 3 tcp 592 ------- 1 0.0 4.0 85 141
r 3.411995 2 3 tcp 592 ------- 1 0.0 4.0 87 143
r 3.427781 2 3 tcp 592 ------- 1 0.0 4.0 89 145
r 3.443568 2 3 tcp 592 ------- 1 0.0 4.0 91 147
r 3.459355 2 3 tcp 592 ------- 1 0.0 4.0 93 149
r 3.475141 2 3 tcp 592 ------- 1 0.0 4.0 95 152
r 3.490928 2 3 tcp 592 ------- 1 0.0 4.0 97 155
r 3.506715 2 3 tcp 592 ------- 1 0.0 4.0 99 158
r 3.522501 2 3 tcp 592 ------- 1 0.0 4.0 101 161
r 3.538288 2 3 tcp 592 ------- 1 0.0 4.0 102 163
r 3.554075 2 3 tcp 592 ---A--- 1 0.0 4.0 50 165
+ 3.800197 2 3 tcp 592 ------- 1 0.0 4.0 52 191
- 3.800197 2 3 tcp 592 ------- 1 0.0 4.0 52 191
+ 3.802565 2 3 tcp 592 ------- 1 0.0 4.0 53 192
- 3.815984 2 3 tcp 592 ------- 1 0.0 4.0 53 192
r 4.015984 2 3 tcp 592 ------- 1 0.0 4.0 52 191
r 4.031771 2 3 tcp 592 ------- 1 0.0 4.0 53 192
+ 4.262107 2 3 tcp 592 ------- 1 0.0 4.0 54 195
- 4.262107 2 3 tcp 592 ------- 1 0.0 4.0 54 195
+ 4.264475 2 3 tcp 592 ------- 1 0.0 4.0 55 196
+ 4.266843 2 3 tcp 592 ------- 1 0.0 4.0 56 197
- 4.277893 2 3 tcp 592 ------- 1 0.0 4.0 55 196
+ 4.277893 2 3 tcp 592 ------- 1 0.0 4.0 57 198
- 4.29368 2 3 tcp 592 ------- 1 0.0 4.0 56 197
- 4.309467 2 3 tcp 592 ------- 1 0.0 4.0 57 198
r 4.477893 2 3 tcp 592 ------- 1 0.0 4.0 54 195
r 4.49368 2 3 tcp 592 ------- 1 0.0 4.0 55 196
r 4.509467 2 3 tcp 592 ------- 1 0.0 4.0 56 197
r 4.525253 2 3 tcp 592 ------- 1 0.0 4.0 57 198
+ 4.724016 2 3 tcp 592 ------- 1 0.0 4.0 58 203
- 4.724016 2 3 tcp 592 ------- 1 0.0 4.0 58 203
+ 4.726384 2 3 tcp 592 ------- 1 0.0 4.0 59 204
- 4.739803 2 3 tcp 592 ------- 1 0.0 4.0 59 204
+ 4.739803 2 3 tcp 592 ------- 1 0.0 4.0 60 205
- 4.755589 2 3 tcp 592 ------- 1 0.0 4.0 60 205
+ 4.755589 2 3 tcp 592 ------- 1 0.0 4.0 61 206
+ 4.757957 2 3 tcp 592 ------- 1 0.0 4.0 62 207
- 4.771376 2 3 tcp 592 ------- 1 0.0 4.0 61 206
+ 4.771376 2 3 tcp 592 ------- 1 0.0 4.0 63 208
- 4.787163 2 3 tcp 592 ------- 1 0.0 4.0 62 207
- 4.802949 2 3 tcp 592 ------- 1 0.0 4.0 63 208
r 4.939803 2 3 tcp 592 ------- 1 0.0 4.0 58 203
r 4.955589 2 3 tcp 592 ------- 1 0.0 4.0 59 204
r 4.971376 2 3 tcp 592 ------- 1 0.0 4.0 60 205
r 4.987163 2 3 tcp 592 ------- 1 0.0 4.0 61 206
r 5.002949 2 3 tcp 592 ------- 1 0.0 4.0 62 207
r 5.018736 2 3 tcp 592 ------- 1 0.0 4.0 63 208
+ 5.185925 2 3 tcp 592 ------- 1 0.0 4.0 64 215
- 5.185925 2 3 tcp 592 ------- 1 0.0 4.0 64 215
+ 5.188293 2 3 tcp 592 ------- 1 0.0 4.0 65 216
- 5.201712 2 3 tcp 592 ------- 1 0.0 4.0 65 216
+ 5.201712 2 3 tcp 592 ------- 1 0.0 4.0 66 217
- 5.217499 2 3 tcp 592 ------- 1 0.0 4.0 66 217
+ 5.217499 2 3 tcp 592 ------- 1 0.0 4.0 67 218
+ 5.219867 2 3 tcp 592 ------- 1 0.0 4.0 68 219
- 5.233285 2 3 tcp 592 ------- 1 0.0 4.0 67 218
+ 5.233285 2 3 tcp 592 ------- 1 0.0 4.0 69 220
- 5.249072 2 3 tcp 592 ------- 1 0.0 4.0 68 219
+ 5.249072 2 3 tcp 592 ------- 1 0.0 4.0 82 221
+ 5.25144 2 3 tcp 592 ------- 1 0.0 4.0 83 222
+ 5.253808 2 3 tcp 592 ------- 1 0.0 4.0 84 223
+ 5.256176 2 3 tcp 592 ------- 1 0.0 4.0 85 224
+ 5.258544 2 3 tcp 592 ------- 1 0.0 4.0 86 225
+ 5.260912 2 3 tcp 592 ------- 1 0.0 4.0 87 226
+ 5.26328 2 3 tcp 592 ------- 1 0.0 4.0 88 227
- 5.264859 2 3 tcp 592 ------- 1 0.0 4.0 69 220
+ 5.265648 2 3 tcp 592 ------- 1 0.0 4.0 89 228
+ 5.268016 2 3 tcp 592 ------- 1 0.0 4.0 90 229
- 5.280645 2 3 tcp 592 ------- 1 0.0 4.0 82 221
- 5.296432 2 3 tcp 592 ------- 1 0.0 4.0 83 222
- 5.312219 2 3 tcp 592 ------- 1 0.0 4.0 84 223
- 5.328005 2 3 tcp 592 ------- 1 0.0 4.0 85 224
- 5.343792 2 3 tcp 592 ------- 1 0.0 4.0 86 225
- 5.359579 2 3 tcp 592 ------- 1 0.0 4.0 87 226
- 5.375365 2 3 tcp 592 ------- 1 0.0 4.0 88 227
- 5.391152 2 3 tcp 592 ------- 1 0.0 4.0 89 228
r 5.401712 2 3 tcp 592 ------- 1 0.0 4.0 64 215
- 5.406939 2 3 tcp 592 ------- 1 0.0 4.0 90 229
r 5.417499 2 3 tcp 592 ------- 1 0.0 4.0 65 216
r 5.433285 2 3 tcp 592 ------- 1 0.0 4.0 66 217
r 5.449072 2 3 tcp 592 ------- 1 0.0 4.0 67 218
r 5.464859 2 3 tcp 592 ------- 1 0.0 4.0 68 219
r 5.480645 2 3 tcp 592 ------- 1 0.0 4.0 69 220
r 5.496432 2 3 tcp 592 ------- 1 0.0 4.0 82 221
r 5.512219 2 3 tcp 592 ------- 1 0.0 4.0 83 222
r 5.528005 2 3 tcp 592 ------- 1 0.0 4.0 84 223
r 5.543792 2 3 tcp 592 ------- 1 0.0 4.0 85 224
r 5.559579 2 3 tcp 592 ------- 1 0.0 4.0 86 225
r 5.575365 2 3 tcp 592 ------- 1 0.0 4.0 87 226
r 5.591152 2 3 tcp 592 ------- 1 0.0 4.0 88 227
r 5.606939 2 3 tcp 592 ------- 1 0.0 4.0 89 228
r 5.622725 2 3 tcp 592 ------- 1 0.0 4.0 90 229
+ 5.647835 2 3 tcp 592 ------- 1 0.0 4.0 91 245
- 5.647835 2 3 tcp 592 ------- 1 0.0 4.0 91 245
+ 5.742555 2 3 tcp 592 ------- 1 0.0 4.0 92 246
- 5.742555 2 3 tcp 592 ------- 1 0.0 4.0 92 246
+ 5.758341 2 3 tcp 592 ------- 1 0.0 4.0 93 247
- 5.758341 2 3 tcp 592 ------- 1 0.0 4.0 93 247
+ 5.774128 2 3 tcp 592 ------- 1 0.0 4.0 94 248
- 5.774128 2 3 tcp 592 ------- 1 0.0 4.0 94 248
+ 5.776496 2 3 tcp 592 ------- 1 0.0 4.0 95 249
- 5.789915 2 3 tcp 592 ------- 1 0.0 4.0 95 249
+ 5.789915 2 3 tcp 592 ------- 1 0.0 4.0 96 250
- 5.805701 2 3 tcp 592 ------- 1 0.0 4.0 96 250
+ 5.805701 2 3 tcp 592 ------- 1 0.0 4.0 97 251
+ 5.808069 2 3 tcp 592 ------- 1 0.0 4.0 98 252
- 5.821488 2 3 tcp 592 ------- 1 0.0 4.0 97 251
+ 5.821488 2 3 tcp 592 ------- 1 0.0 4.0 99 253
- 5.837275 2 3 tcp 592 ------- 1 0.0 4.0 98 252
+ 5.837275 2 3 tcp 592 ------- 1 0.0 4.0 100 254
+ 5.839643 2 3 tcp 592 ------- 1 0.0 4.0 101 255
- 5.853061 2 3 tcp 592 ------- 1 0.0 4.0 99 253
+ 5.853061 2 3 tcp 592 ------- 1 0.0 4.0 102 256
r 5.863621 2 3 tcp 592 ------- 1 0.0 4.0 91 245
- 5.868848 2 3 tcp 592 ------- 1 0.0 4.0 100 254
+ 5.868848 2 3 tcp 592 ------- 1 0.0 4.0 103 257
+ 5.871216 2 3 tcp 592 ------- 1 0.0 4.0 104 258
- 5.884635 2 3 tcp 592 ------- 1 0.0 4.0 101 255
- 5.900421 2 3 tcp 592 ------- 1 0.0 4.0 102 256
- 5.916208 2 3 tcp 592 ------- 1 0.0 4.0 103 257
- 5.931995 2 3 tcp 592 ------- 1 0.0 4.0 104 258
r 5.958341 2 3 tcp 592 ------- 1 0.0 4.0 92 246
r 5.974128 2 3 tcp 592 ------- 1 0.0 4.0 93 247
r 5.989915 2 3 tcp 592 ------- 1 0.0 4.0 94 248
r 6.005701 2 3 tcp 592 ------- 1 0.0 4.0 95 249
r 6.021488 2 3 tcp 592 ------- 1 0.0 4.0 96 250
r 6.037275 2 3 tcp 592 ------- 1 0.0 4.0 97 251
r 6.053061 2 3 tcp 592 ------- 1 0.0 4.0 98 252
r 6.068848 2 3 tcp 592 ------- 1 0.0 4.0 99 253
r 6.084635 2 3 tcp 592 ------- 1 0.0 4.0 100 254
r 6.100421 2 3 tcp 592 ------- 1 0.0 4.0 101 255
+ 6.109744 2 3 tcp 592 ------- 1 0.0 4.0 105 269
- 6.109744 2 3 tcp 592 ------- 1 0.0 4.0 105 269
r 6.116208 2 3 tcp 592 ------- 1 0.0 4.0 102 256
r 6.131995 2 3 tcp 592 ------- 1 0.0 4.0 103 257
r 6.147781 2 3 tcp 592 ------- 1 0.0 4.0 104 258
+ 6.204464 2 3 tcp 592 ------- 1 0.0 4.0 106 274
- 6.204464 2 3 tcp 592 ------- 1 0.0 4.0 106 274
+ 6.206832 2 3 tcp 592 ------- 1 0.0 4.0 107 275
- 6.220251 2 3 tcp 592 ------- 1 0.0 4.0 107 275
+ 6.220251 2 3 tcp 592 ------- 1 0.0 4.0 108 276
- 6.236037 2 3 tcp 592 ------- 1 0.0 4.0 108 276
+ 6.236037 2 3 tcp 592 ------- 1 0.0 4.0 109 277
+ 6.238405 2 3 tcp 592 ------- 1 0.0 4.0 110 278
- 6.251824 2 3 tcp 592 ------- 1 0.0 4.0 109 277
+ 6.251824 2 3 tcp 592 ------- 1 0.0 4.0 111 279
- 6.267611 2 3 tcp 592 ------- 1 0.0 4.0 110 278
+ 6.267611 2 3 tcp 592 ------- 1 0.0 4.0 112 280
+ 6.269979 2 3 tcp 592 ------- 1 0.0 4.0 113 281
- 6.283397 2 3 tcp 592 ------- 1 0.0 4.0 111 279
+ 6.283397 2 3 tcp 592 ------- 1 0.0 4.0 114 282
- 6.299184 2 3 tcp 592 ------- 1 0.0 4.0 112 280
+ 6.299184 2 3 tcp 592 ------- 1 0.0 4.0 115 283
+ 6.301552 2 3 tcp 592 ------- 1 0.0 4.0 116 284
- 6.314971 2 3 tcp 592 ------- 1 0.0 4.0 113 281
+ 6.314971 2 3 tcp 592 ------- 1 0.0 4.0 117 285
r 6.325531 2 3 tcp 592 ------- 1 0.0 4.0 105 269
- 6.330757 2 3 tcp 592 ------- 1 0.0 4.0 114 282
+ 6.330757 2 3 tcp 592 ------- 1 0.0 4.0 118 286
+ 6.333125 2 3 tcp 592 ------- 1 0.0 4.0 119 287
+ 6.335493 2 3 tcp 592 ------- 1 0.0 4.0 120 288
- 6.346544 2 3 tcp 592 ------- 1 0.0 4.0 115 283
+ 6.346544 2 3 tcp 592 ------- 1 0.0 4.0 121 289
- 6.362331 2 3 tcp 592 ------- 1 0.0 4.0 116 284
+ 6.362331 2 3 tcp 592 ------- 1 0.0 4.0 122 291
- 6.378117 2 3 tcp 592 ------- 1 0.0 4.0 117 285
- 6.393904 2 3 tcp 592 ------- 1 0.0 4.0 118 286
+ 6.393904 2 3 tcp 592 ------- 1 0.0 4.0 123 292
+ 6.396272 2 3 tcp 592 ------- 1 0.0 4.0 124 293
- 6.409691 2 3 tcp 592 ------- 1 0.0 4.0 119 287
r 6.420251 2 3 tcp 592 ------- 1 0.0 4.0 106 274
- 6.425477 2 3 tcp 592 ------- 1 0.0 4.0 120 288
r 6.436037 2 3 tcp 592 ------- 1 0.0 4.0 107 275
- 6.441264 2 3 tcp 592 ------- 1 0.0 4.0 121 289
r 6.451824 2 3 tcp 592 ------- 1 0.0 4.0 108 276
- 6.457051 2 3 tcp 592 ------- 1 0.0 4.0 122 291
r 6.467611 2 3 tcp 592 ------- 1 0.0 4.0 109 277
- 6.472837 2 3 tcp 592 ------- 1 0.0 4.0 123 292
r 6.483397 2 3 tcp 592 ------- 1 0.0 4.0 110 278
- 6.488624 2 3 tcp 592 ------- 1 0.0 4.0 124 293
r 6.499184 2 3 tcp 592 ------- 1 0.0 4.0 111 279
r 6.514971 2 3 tcp 592 ------- 1 0.0 4.0 112 280
r 6.530757 2 3 tcp 592 ------- 1 0.0 4.0 113 281
r 6.546544 2 3 tcp 592 ------- 1 0.0 4.0 114 282
r 6.562331 2 3 tcp 592 ------- 1 0.0 4.0 115 283
+ 6.571653 2 3 tcp 592 ------- 1 0.0 4.0 125 303
- 6.571653 2 3 tcp 592 ------- 1 0.0 4.0 125 303
+ 6.574021 2 3 tcp 592 ------- 1 0.0 4.0 126 304
r 6.578117 2 3 tcp 592 ------- 1 0.0 4.0 116 284
- 6.58744 2 3 tcp 592 ------- 1 0.0 4.0 126 304
r 6.593904 2 3 tcp 592 ------- 1 0.0 4.0 117 285
r 6.609691 2 3 tcp 592 ------- 1 0.0 4.0 118 286
r 6.625477 2 3 tcp 592 ------- 1 0.0 4.0 119 287
r 6.641264 2 3 tcp 592 ------- 1 0.0 4.0 120 288
r 6.657051 2 3 tcp 592 ------- 1 0.0 4.0 121 289
+ 6.666373 2 3 tcp 592 ------- 1 0.0 4.0 127 311
- 6.666373 2 3 tcp 592 ------- 1 0.0 4.0 127 311
+ 6.668741 2 3 tcp 592 ------- 1 0.0 4.0 128 312
r 6.672837 2 3 tcp 592 ------- 1 0.0 4.0 122 291
- 6.68216 2 3 tcp 592 ------- 1 0.0 4.0 128 312
+ 6.68216 2 3 tcp 592 ------- 1 0.0 4.0 129 314
+ 6.684528 2 3 tcp 592 ------- 1 0.0 4.0 130 315
r 6.688624 2 3 tcp 592 ------- 1 0.0 4.0 123 292
- 6.697947 2 3 tcp 592 ------- 1 0.0 4.0 129 314
+ 6.697947 2 3 tcp 592 ------- 1 0.0 4.0 131 317
+ 6.700315 2 3 tcp 592 ------- 1 0.0 4.0 132 318
r 6.704411 2 3 tcp 592 ------- 1 0.0 4.0 124 293
- 6.713733 2 3 tcp 592 ------- 1 0.0 4.0 130 315
+ 6.713733 2 3 tcp 592 ------- 1 0.0 4.0 133 320
+ 6.716101 2 3 tcp 592 ------- 1 0.0 4.0 134 321
- 6.72952 2 3 tcp 592 ------- 1 0.0 4.0 131 317
+ 6.72952 2 3 tcp 592 ------- 1 0.0 4.0 135 323
- 6.745307 2 3 tcp 592 ------- 1 0.0 4.0 132 318
+ 6.745307 2 3 tcp 592 ------- 1 0.0 4.0 136 324
- 6.761093 2 3 tcp 592 ------- 1 0.0 4.0 133 320
+ 6.761093 2 3 tcp 592 ------- 1 0.0 4.0 137 325
- 6.77688 2 3 tcp 592 ------- 1 0.0 4.0 134 321
+ 6.77688 2 3 tcp 592 ------- 1 0.0 4.0 138 326
r 6.78744 2 3 tcp 592 ------- 1 0.0 4.0 125 303
- 6.792667 2 3 tcp 592 ------- 1 0.0 4.0 135 323
+ 6.792667 2 3 tcp 592 ------- 1 0.0 4.0 139 327
r 6.803227 2 3 tcp 592 ------- 1 0.0 4.0 126 304
- 6.808453 2 3 tcp 592 ------- 1 0.0 4.0 136 324
+ 6.808453 2 3 tcp 592 ------- 1 0.0 4.0 140 328
- 6.82424 2 3 tcp 592 ------- 1 0.0 4.0 137 325
+ 6.82424 2 3 tcp 592 ------- 1 0.0 4.0 141 330
- 6.840027 2 3 tcp 592 ------- 1 0.0 4.0 138 326
+ 6.840027 2 3 tcp 592 ------- 1 0.0 4.0 142 332
- 6.855813 2 3 tcp 592 ------- 1 0.0 4.0 139 327
+ 6.855813 2 3 tcp 592 ------- 1 0.0 4.0 143 333
- 6.8716 2 3 tcp 592 ------- 1 0.0 4.0 140 328
+ 6.8716 2 3 tcp 592 ------- 1 0.0 4.0 144 334
r 6.88216 2 3 tcp 592 ------- 1 0.0 4.0 127 311
- 6.887387 2 3 tcp 592 ------- 1 0.0 4.0 141 330
+ 6.887387 2 3 tcp 592 ------- 1 0.0 4.0 145 335
r 6.897947 2 3 tcp 592 ------- 1 0.0 4.0 128 312
- 6.903173 2 3 tcp 592 ------- 1 0.0 4.0 142 332
+ 6.903173 2 3 tcp 592 ------- 1 0.0 4.0 146 336
r 6.913733 2 3 tcp 592 ------- 1 0.0 4.0 129 314
- 6.91896 2 3 tcp 592 ------- 1 0.0 4.0 143 333
+ 6.91896 2 3 tcp 592 ------- 1 0.0 4.0 147 338
r 6.92952 2 3 tcp 592 ------- 1 0.0 4.0 130 315
- 6.934747 2 3 tcp 592 ------- 1 0.0 4.0 144 334
+ 6.934747 2 3 tcp 592 ------- 1 0.0 4.0 148 340
r 6.945307 2 3 tcp 592 ------- 1 0.0 4.0 131 317
- 6.950533 2 3 tcp 592 ------- 1 0.0 4.0 145 335
+ 6.950533 2 3 tcp 592 ------- 1 0.0 4.0 149 342
r 6.961093 2 3 tcp 592 ------- 1 0.0 4.0 132 318
- 6.96632 2 3 tcp 592 ------- 1 0.0 4.0 146 336
r 6.97688 2 3 tcp 592 ------- 1 0.0 4.0 133 320
- 6.982107 2 3 tcp 592 ------- 1 0.0 4.0 147 338
r 6.992667 2 3 tcp 592 ------- 1 0.0 4.0 134 321
- 6.997893 2 3 tcp 592 ------- 1 0.0 4.0 148 340
r 7.008453 2 3 tcp 592 ------- 1 0.0 4.0 135 323
- 7.01368 2 3 tcp 592 ------- 1 0.0 4.0 149 342
r 7.02424 2 3 tcp 592 ------- 1 0.0 4.0 136 324
+ 7.033563 2 3 tcp 592 ------- 1 0.0 4.0 150 349
- 7.033563 2 3 tcp 592 ------- 1 0.0 4.0 150 349
r 7.040027 2 3 tcp 592 ------- 1 0.0 4.0 137 325
+ 7.049349 2 3 tcp 592 ------- 1 0.0 4.0 151 351
- 7.049349 2 3 tcp 592 ------- 1 0.0 4.0 151 351
r 7.055813 2 3 tcp 592 ------- 1 0.0 4.0 138 326
r 7.0716 2 3 tcp 592 ------- 1 0.0 4.0 139 327
r 7.087387 2 3 tcp 592 ------- 1 0.0 4.0 140 328
r 7.103173 2 3 tcp 592 ------- 1 0.0 4.0 141 330
r 7.11896 2 3 tcp 592 ------- 1 0.0 4.0 142 332
+ 7.128283 2 3 tcp 592 ------- 1 0.0 4.0 152 357
- 7.128283 2 3 tcp 592 ------- 1 0.0 4.0 152 357
r 7.134747 2 3 tcp 592 ------- 1 0.0 4.0 143 333
+ 7.144069 2 3 tcp 592 ------- 1 0.0 4.0 153 359
- 7.144069 2 3 tcp 592 ------- 1 0.0 4.0 153 359
r 7.150533 2 3 tcp 592 ------- 1 0.0 4.0 144 334
+ 7.159856 2 3 tcp 592 ------- 1 0.0 4.0 154 361
- 7.159856 2 3 tcp 592 ------- 1 0.0 4.0 154 361
r 7.16632 2 3 tcp 592 ------- 1 0.0 4.0 145 335
+ 7.175643 2 3 tcp 592 ------- 1 0.0 4.0 155 363
- 7.175643 2 3 tcp 592 ------- 1 0.0 4.0 155 363
r 7.182107 2 3 tcp 592 ------- 1 0.0 4.0 146 336
+ 7.191429 2 3 tcp 592 ------- 1 0.0 4.0 156 365
- 7.191429 2 3 tcp 592 ------- 1 0.0 4.0 156 365
r 7.197893 2 3 tcp 592 ------- 1 0.0 4.0 147 338
+ 7.207216 2 3 tcp 592 ------- 1 0.0 4.0 157 367
- 7.207216 2 3 tcp 592 ------- 1 0.0 4.0 157 367
r 7.21368 2 3 tcp 592 ------- 1 0.0 4.0 148 340
+ 7.223003 2 3 tcp 592 ------- 1 0.0 4.0 158 369
- 7.223003 2 3 tcp 592 ------- 1 0.0 4.0 158 369
r 7.229467 2 3 tcp 592 ------- 1 0.0 4.0 149 342
+ 7.238789 2 3 tcp 592 ------- 1 0.0 4.0 159 371
- 7.238789 2 3 tcp 592 ------- 1 0.0 4.0 159 371
r 7.249349 2 3 tcp 592 ------- 1 0.0 4.0 150 349
+ 7.254576 2 3 tcp 592 ------- 1 0.0 4.0 160 373
- 7.254576 2 3 tcp 592 ------- 1 0.0 4.0 160 373
+ 7.256944 2 3 tcp 592 ------- 1 0.0 4.0 161 374
r 7.265136 2 3 tcp 592 ------- 1 0.0 4.0 151 351
- 7.270363 2 3 tcp 592 ------- 1 0.0 4.0 161 374
+ 7.270363 2 3 tcp 592 ------- 1 0.0 4.0 162 375
- 7.286149 2 3 tcp 592 ------- 1 0.0 4.0 162 375
+ 7.286149 2 3 tcp 592 ------- 1 0.0 4.0 163 377
- 7.301936 2 3 tcp 592 ------- 1 0.0 4.0 163 377
+ 7.301936 2 3 tcp 592 ------- 1 0.0 4.0 164 379
- 7.317723 2 3 tcp 592 ------- 1 0.0 4.0 164 379
+ 7.317723 2 3 tcp 592 ------- 1 0.0 4.0 165 380
- 7.333509 2 3 tcp 592 ------- 1 0.0 4.0 165 380
+ 7.333509 2 3 tcp 592 ------- 1 0.0 4.0 166 381
r 7.344069 2 3 tcp 592 ------- 1 0.0 4.0 152 357
- 7.349296 2 3 tcp 592 ------- 1 0.0 4.0 166 381
+ 7.349296 2 3 tcp 592 ------- 1 0.0 4.0 167 382
r 7.359856 2 3 tcp 592 ------- 1 0.0 4.0 153 359
- 7.365083 2 3 tcp 592 ------- 1 0.0 4.0 167 382
+ 7.365083 2 3 tcp 592 ------- 1 0.0 4.0 168 383
r 7.375643 2 3 tcp 592 ------- 1 0.0 4.0 154 361
- 7.380869 2 3 tcp 592 ------- 1 0.0 4.0 168 383
+ 7.380869 2 3 tcp 592 ------- 1 0.0 4.0 169 385
r 7.391429 2 3 tcp 592 ------- 1 0.0 4.0 155 363
- 7.396656 2 3 tcp 592 ------- 1 0.0 4.0 169 385
+ 7.396656 2 3 tcp 592 ------- 1 0.0 4.0 170 387
r 7.407216 2 3 tcp 592 ------- 1 0.0 4.0 156 365
- 7.412443 2 3 tcp 592 ------- 1 0.0 4.0 170 387
+ 7.412443 2 3 tcp 592 ------- 1 0.0 4.0 171 389
r 7.423003 2 3 tcp 592 ------- 1 0.0 4.0 157 367
- 7.428229 2 3 tcp 592 ------- 1 0.0 4.0 171 389
+ 7.428229 2 3 tcp 592 ------- 1 0.0 4.0 172 391
r 7.438789 2 3 tcp 592 ------- 1 0.0 4.0 158 369
- 7.444016 2 3 tcp 592 ------- 1 0.0 4.0 172 391
+ 7.444016 2 3 tcp 592 ------- 1 0.0 4.0 173 393
r 7.454576 2 3 tcp 592 ------- 1 0.0 4.0 159 371
- 7.459803 2 3 tcp 592 ------- 1 0.0 4.0 173 393
+ 7.459803 2 3 tcp 592 ------- 1 0.0 4.0 174 395
r 7.470363 2 3 tcp 592 ------- 1 0.0 4.0 160 373
- 7.475589 2 3 tcp 592 ------- 1 0.0 4.0 174 395
+ 7.475589 2 3 tcp 592 ------- 1 0.0 4.0 175 397
r 7.486149 2 3 tcp 592 ------- 1 0.0 4.0 161 374
- 7.491376 2 3 tcp 592 ------- 1 0.0 4.0 175 397
+ 7.495472 2 3 tcp 592 ------- 1 0.0 4.0 176 400
r 7.501936 2 3 tcp 592 ------- 1 0.0 4.0 162 375
- 7.507163 2 3 tcp 592 ------- 1 0.0 4.0 176 400
+ 7.511259 2 3 tcp 592 ------- 1 0.0 4.0 177 402
r 7.517723 2 3 tcp 592 ------- 1 0.0 4.0 163 377
- 7.522949 2 3 tcp 592 ------- 1 0.0 4.0 177 402
r 7.533509 2 3 tcp 592 ------- 1 0.0 4.0 164 379
r 7.549296 2 3 tcp 592 ------- 1 0.0 4.0 165 380
r 7.565083 2 3 tcp 592 ------- 1 0.0 4.0 166 381